 vasp.5.3.3 18Dez12 (build Mar 21 2013 17:04:57) complex                        
  
 executed on             LinuxIFC date 2015.02.09  17:03:29
 serial version


--------------------------------------------------------------------------------------------------------


 INCAR:
 POTCAR:   PAW_PBE Si 05Jan2001                   
 POTCAR:   PAW_PBE Si 05Jan2001                   
   VRHFIN =Si: s2p2                                                             
   LEXCH  = PE                                                                  
   EATOM  =   103.0669 eV,    7.5752 Ry                                         
                                                                                
   TITEL  = PAW_PBE Si 05Jan2001                                                
   LULTRA =        F    use ultrasoft PP ?                                      
   IUNSCR =        1    unscreen: 0-lin 1-nonlin 2-no                           
   RPACOR =    1.500    partial core radius                                     
   POMASS =   28.085; ZVAL   =    4.000    mass and valenz                      
   RCORE  =    1.900    outmost cutoff radius                                   
   RWIGS  =    2.480; RWIGS  =    1.312    wigner-seitz radius (au A)           
   ENMAX  =  245.345; ENMIN  =  184.009 eV                                      
   ICORE  =        2    local potential                                         
   LCOR   =        T    correct aug charges                                     
   LPAW   =        T    paw PP                                                  
   EAUG   =  322.069                                                            
   DEXC   =    -.007                                                            
   RMAX   =    2.944    core radius for proj-oper                               
   RAUG   =    1.300    factor for augmentation sphere                          
   RDEP   =    1.993    radius for radial grids                                 
   QCUT   =   -4.246; QGAM   =    8.493    optimization parameters              
                                                                                
   Description                                                                  
     l     E      TYP  RCUT    TYP  RCUT                                        
     0   .000     23  1.900                                                     
     0   .000     23  1.900                                                     
     1   .000     23  1.900                                                     
     1   .000     23  1.900                                                     
     2   .000      7  1.900                                                     
  local pseudopotential read in
  partial core-charges read in
  atomic valenz-charges read in
  non local Contribution for L=           0  read in
    real space projection operators read in
  non local Contribution for L=           0  read in
    real space projection operators read in
  non local Contribution for L=           1  read in
    real space projection operators read in
  non local Contribution for L=           1  read in
    real space projection operators read in
    PAW grid and wavefunctions read in
 
   number of l-projection  operators is LMAX  =           4
   number of lm-projection operators is LMMAX =           8
 
 PAW_PBE Si 05Jan2001                   :
 energy of atom  1       EATOM= -103.0669
 kinetic energy error for atom=    0.0012 (will be added to EATOM!!)
 
 
 POSCAR:  Diamond Structure Silicon ! System Name
  positions in direct lattice
  No initial velocities read in
 exchange correlation table for  LEXCH =        8
   RHO(1)=    0.500       N(1)  =     2000
   RHO(2)=  100.500       N(2)  =     4000
 


--------------------------------------------------------------------------------------------------------


 ion  position               nearest neighbor table
   1  0.875  0.875  0.875-   2 2.35   2 2.35   2 2.35   2 2.35
   2  0.125  0.125  0.125-   1 2.35   1 2.35   1 2.35   1 2.35
 
  LATTYP: Found a face centered cubic cell.
 ALAT       =     5.4300000000
  
  Lattice vectors:
  
 A1 = (   0.0000000000,   2.7150000000,   2.7150000000)
 A2 = (   2.7150000000,   0.0000000000,   2.7150000000)
 A3 = (   2.7150000000,   2.7150000000,   0.0000000000)


Analysis of symmetry for initial positions (statically):
=====================================================================
 Subroutine PRICEL returns:
 Original cell was already a primitive cell.
 

 Routine SETGRP: Setting up the symmetry group for a 
 face centered cubic supercell.


 Subroutine GETGRP returns: Found 48 space group operations
 (whereof 12 operations were pure point group operations)
 out of a pool of 48 trial point group operations.


The static configuration has the point symmetry D_3d.
 The point group associated with its full space group is O_h .


Analysis of symmetry for dynamics (positions and initial velocities):
=====================================================================
 Subroutine PRICEL returns:
 Original cell was already a primitive cell.
 

 Routine SETGRP: Setting up the symmetry group for a 
 face centered cubic supercell.


 Subroutine GETGRP returns: Found 48 space group operations
 (whereof 12 operations were pure point group operations)
 out of a pool of 48 trial point group operations.


The dynamic configuration has the point symmetry D_3d.
 The point group associated with its full space group is O_h .


 irot  :   1
 --------------------------------------------------------------------
 isymop:   1   0   0
           0   1   0
           0   0   1

 gtrans:     0.0000000     0.0000000     0.0000000

 ptrans:     0.0000000     0.0000000     0.0000000
 rotmap:
 (   1->   1)  (   2->   2) 


 irot  :   2
 --------------------------------------------------------------------
 isymop:  -1   0   0
           0  -1   0
           0   0  -1

 gtrans:     0.0000000     0.0000000     0.0000000

 ptrans:     0.0000000     0.0000000     0.0000000
 rotmap:
 (   1->   2)  (   2->   1) 


 irot  :   3
 --------------------------------------------------------------------
 isymop:   0   0   1
           1   0   0
           0   1   0

 gtrans:     0.0000000     0.0000000     0.0000000

 ptrans:     0.0000000     0.0000000     0.0000000
 rotmap:
 (   1->   1)  (   2->   2) 


 irot  :   4
 --------------------------------------------------------------------
 isymop:   0   0  -1
          -1   0   0
           0  -1   0

 gtrans:     0.0000000     0.0000000     0.0000000

 ptrans:     0.0000000     0.0000000     0.0000000
 rotmap:
 (   1->   2)  (   2->   1) 


 irot  :   5
 --------------------------------------------------------------------
 isymop:   0   1   0
           0   0   1
           1   0   0

 gtrans:     0.0000000     0.0000000     0.0000000

 ptrans:     0.0000000     0.0000000     0.0000000
 rotmap:
 (   1->   1)  (   2->   2) 


 irot  :   6
 --------------------------------------------------------------------
 isymop:   0  -1   0
           0   0  -1
          -1   0   0

 gtrans:     0.0000000     0.0000000     0.0000000

 ptrans:     0.0000000     0.0000000     0.0000000
 rotmap:
 (   1->   2)  (   2->   1) 


 irot  :   7
 --------------------------------------------------------------------
 isymop:  -1   0   0
           0   0  -1
           0  -1   0

 gtrans:     0.0000000     0.0000000     0.0000000

 ptrans:     0.0000000     0.0000000     0.0000000
 rotmap:
 (   1->   2)  (   2->   1) 


 irot  :   8
 --------------------------------------------------------------------
 isymop:   1   0   0
           0   0   1
           0   1   0

 gtrans:     0.0000000     0.0000000     0.0000000

 ptrans:     0.0000000     0.0000000     0.0000000
 rotmap:
 (   1->   1)  (   2->   2) 


 irot  :   9
 --------------------------------------------------------------------
 isymop:   0  -1   0
          -1   0   0
           0   0  -1

 gtrans:     0.0000000     0.0000000     0.0000000

 ptrans:     0.0000000     0.0000000     0.0000000
 rotmap:
 (   1->   2)  (   2->   1) 


 irot  :  10
 --------------------------------------------------------------------
 isymop:   0   1   0
           1   0   0
           0   0   1

 gtrans:     0.0000000     0.0000000     0.0000000

 ptrans:     0.0000000     0.0000000     0.0000000
 rotmap:
 (   1->   1)  (   2->   2) 


 irot  :  11
 --------------------------------------------------------------------
 isymop:   0   0  -1
           0  -1   0
          -1   0   0

 gtrans:     0.0000000     0.0000000     0.0000000

 ptrans:     0.0000000     0.0000000     0.0000000
 rotmap:
 (   1->   2)  (   2->   1) 


 irot  :  12
 --------------------------------------------------------------------
 isymop:   0   0   1
           0   1   0
           1   0   0

 gtrans:     0.0000000     0.0000000     0.0000000

 ptrans:     0.0000000     0.0000000     0.0000000
 rotmap:
 (   1->   1)  (   2->   2) 


 irot  :  13
 --------------------------------------------------------------------
 isymop:   1   1   1
           0   0  -1
          -1   0   0

 gtrans:     0.5000000     0.0000000     0.0000000

 ptrans:     0.0000000     0.0000000     0.0000000
 rotmap:
 (   1->   2)  (   2->   1) 


 irot  :  14
 --------------------------------------------------------------------
 isymop:  -1  -1  -1
           0   0   1
           1   0   0

 gtrans:     0.5000000     0.0000000     0.0000000

 ptrans:     0.0000000     0.0000000     0.0000000
 rotmap:
 (   1->   1)  (   2->   2) 


 irot  :  15
 --------------------------------------------------------------------
 isymop:   1   1   1
           0  -1   0
           0   0  -1

 gtrans:     0.5000000     0.0000000     0.0000000

 ptrans:     0.0000000     0.0000000     0.0000000
 rotmap:
 (   1->   2)  (   2->   1) 


 irot  :  16
 --------------------------------------------------------------------
 isymop:  -1  -1  -1
           0   1   0
           0   0   1

 gtrans:     0.5000000     0.0000000     0.0000000

 ptrans:     0.0000000     0.0000000     0.0000000
 rotmap:
 (   1->   1)  (   2->   2) 


 irot  :  17
 --------------------------------------------------------------------
 isymop:   1   1   1
          -1   0   0
           0  -1   0

 gtrans:     0.5000000     0.0000000     0.0000000

 ptrans:     0.0000000     0.0000000     0.0000000
 rotmap:
 (   1->   2)  (   2->   1) 


 irot  :  18
 --------------------------------------------------------------------
 isymop:  -1  -1  -1
           1   0   0
           0   1   0

 gtrans:     0.5000000     0.0000000     0.0000000

 ptrans:     0.0000000     0.0000000     0.0000000
 rotmap:
 (   1->   1)  (   2->   2) 


 irot  :  19
 --------------------------------------------------------------------
 isymop:   0   1   0
           1   0   0
          -1  -1  -1

 gtrans:     0.0000000     0.0000000     0.5000000

 ptrans:     0.0000000     0.0000000     0.0000000
 rotmap:
 (   1->   1)  (   2->   2) 


 irot  :  20
 --------------------------------------------------------------------
 isymop:   0  -1   0
          -1   0   0
           1   1   1

 gtrans:     0.0000000     0.0000000     0.5000000

 ptrans:     0.0000000     0.0000000     0.0000000
 rotmap:
 (   1->   2)  (   2->   1) 


 irot  :  21
 --------------------------------------------------------------------
 isymop:   1   0   0
           0   0   1
          -1  -1  -1

 gtrans:     0.0000000     0.0000000     0.5000000

 ptrans:     0.0000000     0.0000000     0.0000000
 rotmap:
 (   1->   1)  (   2->   2) 


 irot  :  22
 --------------------------------------------------------------------
 isymop:  -1   0   0
           0   0  -1
           1   1   1

 gtrans:     0.0000000     0.0000000     0.5000000

 ptrans:     0.0000000     0.0000000     0.0000000
 rotmap:
 (   1->   2)  (   2->   1) 


 irot  :  23
 --------------------------------------------------------------------
 isymop:   0   0   1
           0   1   0
          -1  -1  -1

 gtrans:     0.0000000     0.0000000     0.5000000

 ptrans:     0.0000000     0.0000000     0.0000000
 rotmap:
 (   1->   1)  (   2->   2) 


 irot  :  24
 --------------------------------------------------------------------
 isymop:   0   0  -1
           0  -1   0
           1   1   1

 gtrans:     0.0000000     0.0000000     0.5000000

 ptrans:     0.0000000     0.0000000     0.0000000
 rotmap:
 (   1->   2)  (   2->   1) 


 irot  :  25
 --------------------------------------------------------------------
 isymop:   0   0  -1
           1   1   1
           0  -1   0

 gtrans:     0.0000000     0.5000000     0.0000000

 ptrans:     0.0000000     0.0000000     0.0000000
 rotmap:
 (   1->   2)  (   2->   1) 


 irot  :  26
 --------------------------------------------------------------------
 isymop:   0   0   1
          -1  -1  -1
           0   1   0

 gtrans:     0.0000000     0.5000000     0.0000000

 ptrans:     0.0000000     0.0000000     0.0000000
 rotmap:
 (   1->   1)  (   2->   2) 


 irot  :  27
 --------------------------------------------------------------------
 isymop:   0  -1   0
           1   1   1
          -1   0   0

 gtrans:     0.0000000     0.5000000     0.0000000

 ptrans:     0.0000000     0.0000000     0.0000000
 rotmap:
 (   1->   2)  (   2->   1) 


 irot  :  28
 --------------------------------------------------------------------
 isymop:   0   1   0
          -1  -1  -1
           1   0   0

 gtrans:     0.0000000     0.5000000     0.0000000

 ptrans:     0.0000000     0.0000000     0.0000000
 rotmap:
 (   1->   1)  (   2->   2) 


 irot  :  29
 --------------------------------------------------------------------
 isymop:  -1   0   0
           1   1   1
           0   0  -1

 gtrans:     0.0000000     0.5000000     0.0000000

 ptrans:     0.0000000     0.0000000     0.0000000
 rotmap:
 (   1->   2)  (   2->   1) 


 irot  :  30
 --------------------------------------------------------------------
 isymop:   1   0   0
          -1  -1  -1
           0   0   1

 gtrans:     0.0000000     0.5000000     0.0000000

 ptrans:     0.0000000     0.0000000     0.0000000
 rotmap:
 (   1->   1)  (   2->   2) 


 irot  :  31
 --------------------------------------------------------------------
 isymop:  -1  -1  -1
           0   1   0
           1   0   0

 gtrans:     0.5000000     0.0000000     0.0000000

 ptrans:     0.0000000     0.0000000     0.0000000
 rotmap:
 (   1->   1)  (   2->   2) 


 irot  :  32
 --------------------------------------------------------------------
 isymop:   1   1   1
           0  -1   0
          -1   0   0

 gtrans:     0.5000000     0.0000000     0.0000000

 ptrans:     0.0000000     0.0000000     0.0000000
 rotmap:
 (   1->   2)  (   2->   1) 


 irot  :  33
 --------------------------------------------------------------------
 isymop:  -1  -1  -1
           1   0   0
           0   0   1

 gtrans:     0.5000000     0.0000000     0.0000000

 ptrans:     0.0000000     0.0000000     0.0000000
 rotmap:
 (   1->   1)  (   2->   2) 


 irot  :  34
 --------------------------------------------------------------------
 isymop:   1   1   1
          -1   0   0
           0   0  -1

 gtrans:     0.5000000     0.0000000     0.0000000

 ptrans:     0.0000000     0.0000000     0.0000000
 rotmap:
 (   1->   2)  (   2->   1) 


 irot  :  35
 --------------------------------------------------------------------
 isymop:  -1  -1  -1
           0   0   1
           0   1   0

 gtrans:     0.5000000     0.0000000     0.0000000

 ptrans:     0.0000000     0.0000000     0.0000000
 rotmap:
 (   1->   1)  (   2->   2) 


 irot  :  36
 --------------------------------------------------------------------
 isymop:   1   1   1
           0   0  -1
           0  -1   0

 gtrans:     0.5000000     0.0000000     0.0000000

 ptrans:     0.0000000     0.0000000     0.0000000
 rotmap:
 (   1->   2)  (   2->   1) 


 irot  :  37
 --------------------------------------------------------------------
 isymop:   0  -1   0
           0   0  -1
           1   1   1

 gtrans:     0.0000000     0.0000000     0.5000000

 ptrans:     0.0000000     0.0000000     0.0000000
 rotmap:
 (   1->   2)  (   2->   1) 


 irot  :  38
 --------------------------------------------------------------------
 isymop:   0   1   0
           0   0   1
          -1  -1  -1

 gtrans:     0.0000000     0.0000000     0.5000000

 ptrans:     0.0000000     0.0000000     0.0000000
 rotmap:
 (   1->   1)  (   2->   2) 


 irot  :  39
 --------------------------------------------------------------------
 isymop:  -1   0   0
           0  -1   0
           1   1   1

 gtrans:     0.0000000     0.0000000     0.5000000

 ptrans:     0.0000000     0.0000000     0.0000000
 rotmap:
 (   1->   2)  (   2->   1) 


 irot  :  40
 --------------------------------------------------------------------
 isymop:   1   0   0
           0   1   0
          -1  -1  -1

 gtrans:     0.0000000     0.0000000     0.5000000

 ptrans:     0.0000000     0.0000000     0.0000000
 rotmap:
 (   1->   1)  (   2->   2) 


 irot  :  41
 --------------------------------------------------------------------
 isymop:   0   0  -1
          -1   0   0
           1   1   1

 gtrans:     0.0000000     0.0000000     0.5000000

 ptrans:     0.0000000     0.0000000     0.0000000
 rotmap:
 (   1->   2)  (   2->   1) 


 irot  :  42
 --------------------------------------------------------------------
 isymop:   0   0   1
           1   0   0
          -1  -1  -1

 gtrans:     0.0000000     0.0000000     0.5000000

 ptrans:     0.0000000     0.0000000     0.0000000
 rotmap:
 (   1->   1)  (   2->   2) 


 irot  :  43
 --------------------------------------------------------------------
 isymop:   1   0   0
          -1  -1  -1
           0   1   0

 gtrans:     0.0000000     0.5000000     0.0000000

 ptrans:     0.0000000     0.0000000     0.0000000
 rotmap:
 (   1->   1)  (   2->   2) 


 irot  :  44
 --------------------------------------------------------------------
 isymop:  -1   0   0
           1   1   1
           0  -1   0

 gtrans:     0.0000000     0.5000000     0.0000000

 ptrans:     0.0000000     0.0000000     0.0000000
 rotmap:
 (   1->   2)  (   2->   1) 


 irot  :  45
 --------------------------------------------------------------------
 isymop:   0   0   1
          -1  -1  -1
           1   0   0

 gtrans:     0.0000000     0.5000000     0.0000000

 ptrans:     0.0000000     0.0000000     0.0000000
 rotmap:
 (   1->   1)  (   2->   2) 


 irot  :  46
 --------------------------------------------------------------------
 isymop:   0   0  -1
           1   1   1
          -1   0   0

 gtrans:     0.0000000     0.5000000     0.0000000

 ptrans:     0.0000000     0.0000000     0.0000000
 rotmap:
 (   1->   2)  (   2->   1) 


 irot  :  47
 --------------------------------------------------------------------
 isymop:   0   1   0
          -1  -1  -1
           0   0   1

 gtrans:     0.0000000     0.5000000     0.0000000

 ptrans:     0.0000000     0.0000000     0.0000000
 rotmap:
 (   1->   1)  (   2->   2) 


 irot  :  48
 --------------------------------------------------------------------
 isymop:   0  -1   0
           1   1   1
           0   0  -1

 gtrans:     0.0000000     0.5000000     0.0000000

 ptrans:     0.0000000     0.0000000     0.0000000
 rotmap:
 (   1->   2)  (   2->   1) 
 
 
 KPOINTS: nxmxp! comment line                     

Automatic generation of k-mesh.
Space group operators:
 irot       det(A)        alpha          n_x          n_y          n_z        tau_x        tau_y        tau_z
    1     1.000000     0.000001     1.000000     0.000000     0.000000     0.000000     0.000000     0.000000
    2    -1.000000     0.000001     1.000000     0.000000     0.000000     0.000000     0.000000     0.000000
    3     1.000000   120.000000    -0.577350    -0.577350    -0.577350     0.000000     0.000000     0.000000
    4    -1.000000   120.000000    -0.577350    -0.577350    -0.577350     0.000000     0.000000     0.000000
    5     1.000000   120.000000     0.577350     0.577350     0.577350     0.000000     0.000000     0.000000
    6    -1.000000   120.000000     0.577350     0.577350     0.577350     0.000000     0.000000     0.000000
    7     1.000000   180.000000     0.000000    -0.707107     0.707107     0.000000     0.000000     0.000000
    8    -1.000000   180.000000     0.000000    -0.707107     0.707107     0.000000     0.000000     0.000000
    9     1.000000   180.000000     0.707107    -0.707107     0.000000     0.000000     0.000000     0.000000
   10    -1.000000   180.000000     0.707107    -0.707107     0.000000     0.000000     0.000000     0.000000
   11     1.000000   180.000000     0.707107     0.000000    -0.707107     0.000000     0.000000     0.000000
   12    -1.000000   180.000000     0.707107     0.000000    -0.707107     0.000000     0.000000     0.000000
   13     1.000000    90.000000     0.000000     0.000000    -1.000000     0.500000     0.000000     0.000000
   14    -1.000000    90.000000     0.000000     0.000000    -1.000000     0.500000     0.000000     0.000000
   15     1.000000   180.000000     0.000000     0.707107     0.707107     0.500000     0.000000     0.000000
   16    -1.000000   180.000000     0.000000     0.707107     0.707107     0.500000     0.000000     0.000000
   17     1.000000    90.000000     0.000000     1.000000     0.000000     0.500000     0.000000     0.000000
   18    -1.000000    90.000000     0.000000     1.000000     0.000000     0.500000     0.000000     0.000000
   19     1.000000   180.000000     0.000000     0.000000     1.000000     0.000000     0.000000     0.500000
   20    -1.000000   180.000000     0.000000     0.000000     1.000000     0.000000     0.000000     0.500000
   21     1.000000   120.000000    -0.577350     0.577350     0.577350     0.000000     0.000000     0.500000
   22    -1.000000   120.000000    -0.577350     0.577350     0.577350     0.000000     0.000000     0.500000
   23     1.000000   120.000000    -0.577350     0.577350    -0.577350     0.000000     0.000000     0.500000
   24    -1.000000   120.000000    -0.577350     0.577350    -0.577350     0.000000     0.000000     0.500000
   25     1.000000    90.000000     0.000000     0.000000     1.000000     0.000000     0.500000     0.000000
   26    -1.000000    90.000000     0.000000     0.000000     1.000000     0.000000     0.500000     0.000000
   27     1.000000    90.000000    -1.000000     0.000000     0.000000     0.000000     0.500000     0.000000
   28    -1.000000    90.000000    -1.000000     0.000000     0.000000     0.000000     0.500000     0.000000
   29     1.000000   180.000000     0.707107     0.000000     0.707107     0.000000     0.500000     0.000000
   30    -1.000000   180.000000     0.707107     0.000000     0.707107     0.000000     0.500000     0.000000
   31     1.000000   120.000000     0.577350    -0.577350     0.577350     0.500000     0.000000     0.000000
   32    -1.000000   120.000000     0.577350    -0.577350     0.577350     0.500000     0.000000     0.000000
   33     1.000000   120.000000    -0.577350    -0.577350     0.577350     0.500000     0.000000     0.000000
   34    -1.000000   120.000000    -0.577350    -0.577350     0.577350     0.500000     0.000000     0.000000
   35     1.000000   180.000000     1.000000     0.000000     0.000000     0.500000     0.000000     0.000000
   36    -1.000000   180.000000     1.000000     0.000000     0.000000     0.500000     0.000000     0.000000
   37     1.000000    90.000000     0.000000    -1.000000     0.000000     0.000000     0.000000     0.500000
   38    -1.000000    90.000000     0.000000    -1.000000     0.000000     0.000000     0.000000     0.500000
   39     1.000000   180.000000     0.707107     0.707107     0.000000     0.000000     0.000000     0.500000
   40    -1.000000   180.000000     0.707107     0.707107     0.000000     0.000000     0.000000     0.500000
   41     1.000000    90.000000     1.000000     0.000000     0.000000     0.000000     0.000000     0.500000
   42    -1.000000    90.000000     1.000000     0.000000     0.000000     0.000000     0.000000     0.500000
   43     1.000000   120.000000     0.577350    -0.577350    -0.577350     0.000000     0.500000     0.000000
   44    -1.000000   120.000000     0.577350    -0.577350    -0.577350     0.000000     0.500000     0.000000
   45     1.000000   180.000000     0.000000     1.000000     0.000000     0.000000     0.500000     0.000000
   46    -1.000000   180.000000     0.000000     1.000000     0.000000     0.000000     0.500000     0.000000
   47     1.000000   120.000000     0.577350     0.577350    -0.577350     0.000000     0.500000     0.000000
   48    -1.000000   120.000000     0.577350     0.577350    -0.577350     0.000000     0.500000     0.000000
 
 Subroutine IBZKPT returns following result:
 ===========================================
 
 Found    182 irreducible k-points:
 
 Following reciprocal coordinates:
            Coordinates               Weight
  0.041667  0.041667  0.041667     96.000000
  0.125000  0.041667  0.041667    288.000000
  0.208333  0.041667  0.041667    288.000000
  0.291667  0.041667  0.041667    288.000000
  0.375000  0.041667  0.041667    288.000000
  0.458333  0.041667  0.041667    288.000000
 -0.458333  0.041667  0.041667    288.000000
 -0.375000  0.041667  0.041667    288.000000
 -0.291667  0.041667  0.041667    288.000000
 -0.208333  0.041667  0.041667    288.000000
 -0.125000  0.041667  0.041667    288.000000
 -0.041667  0.041667  0.041667    288.000000
  0.125000  0.125000  0.041667    288.000000
  0.208333  0.125000  0.041667    576.000000
  0.291667  0.125000  0.041667    576.000000
  0.375000  0.125000  0.041667    576.000000
  0.458333  0.125000  0.041667    576.000000
 -0.458333  0.125000  0.041667    576.000000
 -0.375000  0.125000  0.041667    576.000000
 -0.291667  0.125000  0.041667    576.000000
 -0.208333  0.125000  0.041667    576.000000
 -0.125000  0.125000  0.041667    576.000000
 -0.041667  0.125000  0.041667    576.000000
  0.208333  0.208333  0.041667    288.000000
  0.291667  0.208333  0.041667    576.000000
  0.375000  0.208333  0.041667    576.000000
  0.458333  0.208333  0.041667    576.000000
 -0.458333  0.208333  0.041667    576.000000
 -0.375000  0.208333  0.041667    576.000000
 -0.291667  0.208333  0.041667    576.000000
 -0.208333  0.208333  0.041667    576.000000
 -0.125000  0.208333  0.041667    576.000000
 -0.041667  0.208333  0.041667    576.000000
  0.291667  0.291667  0.041667    288.000000
  0.375000  0.291667  0.041667    576.000000
  0.458333  0.291667  0.041667    576.000000
 -0.458333  0.291667  0.041667    576.000000
 -0.375000  0.291667  0.041667    576.000000
 -0.291667  0.291667  0.041667    576.000000
 -0.208333  0.291667  0.041667    576.000000
 -0.125000  0.291667  0.041667    576.000000
 -0.041667  0.291667  0.041667    576.000000
  0.375000  0.375000  0.041667    288.000000
  0.458333  0.375000  0.041667    576.000000
 -0.458333  0.375000  0.041667    576.000000
 -0.375000  0.375000  0.041667    576.000000
 -0.291667  0.375000  0.041667    576.000000
 -0.208333  0.375000  0.041667    576.000000
 -0.125000  0.375000  0.041667    576.000000
 -0.041667  0.375000  0.041667    576.000000
  0.458333  0.458333  0.041667    288.000000
 -0.458333  0.458333  0.041667    576.000000
 -0.375000  0.458333  0.041667    576.000000
 -0.291667  0.458333  0.041667    576.000000
 -0.208333  0.458333  0.041667    576.000000
 -0.125000  0.458333  0.041667    576.000000
 -0.041667  0.458333  0.041667    576.000000
 -0.458333 -0.458333  0.041667    288.000000
 -0.375000 -0.458333  0.041667    576.000000
 -0.291667 -0.458333  0.041667    576.000000
 -0.208333 -0.458333  0.041667    576.000000
 -0.125000 -0.458333  0.041667    576.000000
 -0.375000 -0.375000  0.041667    288.000000
 -0.291667 -0.375000  0.041667    576.000000
 -0.208333 -0.375000  0.041667    576.000000
 -0.125000 -0.375000  0.041667    576.000000
 -0.291667 -0.291667  0.041667    288.000000
 -0.208333 -0.291667  0.041667    576.000000
 -0.125000 -0.291667  0.041667    576.000000
 -0.208333 -0.208333  0.041667    288.000000
 -0.125000 -0.208333  0.041667    576.000000
 -0.125000 -0.125000  0.041667    288.000000
  0.125000  0.125000  0.125000     96.000000
  0.208333  0.125000  0.125000    288.000000
  0.291667  0.125000  0.125000    288.000000
  0.375000  0.125000  0.125000    288.000000
  0.458333  0.125000  0.125000    288.000000
 -0.458333  0.125000  0.125000    288.000000
 -0.375000  0.125000  0.125000    288.000000
 -0.291667  0.125000  0.125000    288.000000
 -0.208333  0.125000  0.125000    288.000000
 -0.125000  0.125000  0.125000    288.000000
  0.208333  0.208333  0.125000    288.000000
  0.291667  0.208333  0.125000    576.000000
  0.375000  0.208333  0.125000    576.000000
  0.458333  0.208333  0.125000    576.000000
 -0.458333  0.208333  0.125000    576.000000
 -0.375000  0.208333  0.125000    576.000000
 -0.291667  0.208333  0.125000    576.000000
 -0.208333  0.208333  0.125000    576.000000
 -0.125000  0.208333  0.125000    576.000000
  0.291667  0.291667  0.125000    288.000000
  0.375000  0.291667  0.125000    576.000000
  0.458333  0.291667  0.125000    576.000000
 -0.458333  0.291667  0.125000    576.000000
 -0.375000  0.291667  0.125000    576.000000
 -0.291667  0.291667  0.125000    576.000000
 -0.208333  0.291667  0.125000    576.000000
 -0.125000  0.291667  0.125000    576.000000
  0.375000  0.375000  0.125000    288.000000
  0.458333  0.375000  0.125000    576.000000
 -0.458333  0.375000  0.125000    576.000000
 -0.375000  0.375000  0.125000    576.000000
 -0.291667  0.375000  0.125000    576.000000
 -0.208333  0.375000  0.125000    576.000000
 -0.125000  0.375000  0.125000    576.000000
  0.458333  0.458333  0.125000    288.000000
 -0.458333  0.458333  0.125000    576.000000
 -0.375000  0.458333  0.125000    576.000000
 -0.291667  0.458333  0.125000    576.000000
 -0.208333  0.458333  0.125000    576.000000
 -0.125000  0.458333  0.125000    576.000000
 -0.458333 -0.458333  0.125000    288.000000
 -0.375000 -0.458333  0.125000    576.000000
 -0.291667 -0.458333  0.125000    576.000000
 -0.208333 -0.458333  0.125000    576.000000
 -0.375000 -0.375000  0.125000    288.000000
 -0.291667 -0.375000  0.125000    576.000000
 -0.208333 -0.375000  0.125000    576.000000
 -0.291667 -0.291667  0.125000    288.000000
 -0.208333 -0.291667  0.125000    576.000000
 -0.208333 -0.208333  0.125000    288.000000
  0.208333  0.208333  0.208333     96.000000
  0.291667  0.208333  0.208333    288.000000
  0.375000  0.208333  0.208333    288.000000
  0.458333  0.208333  0.208333    288.000000
 -0.458333  0.208333  0.208333    288.000000
 -0.375000  0.208333  0.208333    288.000000
 -0.291667  0.208333  0.208333    288.000000
 -0.208333  0.208333  0.208333    288.000000
  0.291667  0.291667  0.208333    288.000000
  0.375000  0.291667  0.208333    576.000000
  0.458333  0.291667  0.208333    576.000000
 -0.458333  0.291667  0.208333    576.000000
 -0.375000  0.291667  0.208333    576.000000
 -0.291667  0.291667  0.208333    576.000000
 -0.208333  0.291667  0.208333    576.000000
  0.375000  0.375000  0.208333    288.000000
  0.458333  0.375000  0.208333    576.000000
 -0.458333  0.375000  0.208333    576.000000
 -0.375000  0.375000  0.208333    576.000000
 -0.291667  0.375000  0.208333    576.000000
 -0.208333  0.375000  0.208333    576.000000
  0.458333  0.458333  0.208333    288.000000
 -0.458333  0.458333  0.208333    576.000000
 -0.375000  0.458333  0.208333    576.000000
 -0.291667  0.458333  0.208333    576.000000
 -0.208333  0.458333  0.208333    576.000000
 -0.458333 -0.458333  0.208333    288.000000
 -0.375000 -0.458333  0.208333    576.000000
 -0.291667 -0.458333  0.208333    576.000000
 -0.375000 -0.375000  0.208333    288.000000
 -0.291667 -0.375000  0.208333    576.000000
 -0.291667 -0.291667  0.208333    288.000000
  0.291667  0.291667  0.291667     96.000000
  0.375000  0.291667  0.291667    288.000000
  0.458333  0.291667  0.291667    288.000000
 -0.458333  0.291667  0.291667    288.000000
 -0.375000  0.291667  0.291667    288.000000
 -0.291667  0.291667  0.291667    288.000000
  0.375000  0.375000  0.291667    288.000000
  0.458333  0.375000  0.291667    576.000000
 -0.458333  0.375000  0.291667    576.000000
 -0.375000  0.375000  0.291667    576.000000
 -0.291667  0.375000  0.291667    576.000000
  0.458333  0.458333  0.291667    288.000000
 -0.458333  0.458333  0.291667    576.000000
 -0.375000  0.458333  0.291667    576.000000
 -0.291667  0.458333  0.291667    576.000000
 -0.458333 -0.458333  0.291667    288.000000
 -0.375000 -0.458333  0.291667    576.000000
 -0.375000 -0.375000  0.291667    288.000000
  0.375000  0.375000  0.375000     96.000000
  0.458333  0.375000  0.375000    288.000000
 -0.458333  0.375000  0.375000    288.000000
 -0.375000  0.375000  0.375000    288.000000
  0.458333  0.458333  0.375000    288.000000
 -0.458333  0.458333  0.375000    576.000000
 -0.375000  0.458333  0.375000    576.000000
 -0.458333 -0.458333  0.375000    288.000000
  0.458333  0.458333  0.458333     96.000000
 -0.458333  0.458333  0.458333    288.000000
 
 Following cartesian coordinates:
            Coordinates               Weight
  0.041667  0.041667  0.041667     96.000000
 -0.041667  0.125000  0.125000    288.000000
 -0.125000  0.208333  0.208333    288.000000
 -0.208333  0.291667  0.291667    288.000000
 -0.291667  0.375000  0.375000    288.000000
 -0.375000  0.458333  0.458333    288.000000
  0.541667 -0.458333 -0.458333    288.000000
  0.458333 -0.375000 -0.375000    288.000000
  0.375000 -0.291667 -0.291667    288.000000
  0.291667 -0.208333 -0.208333    288.000000
  0.208333 -0.125000 -0.125000    288.000000
  0.125000 -0.041667 -0.041667    288.000000
  0.041667  0.041667  0.208333    288.000000
 -0.041667  0.125000  0.291667    576.000000
 -0.125000  0.208333  0.375000    576.000000
 -0.208333  0.291667  0.458333    576.000000
 -0.291667  0.375000  0.541667    576.000000
  0.625000 -0.541667 -0.375000    576.000000
  0.541667 -0.458333 -0.291667    576.000000
  0.458333 -0.375000 -0.208333    576.000000
  0.375000 -0.291667 -0.125000    576.000000
  0.291667 -0.208333 -0.041667    576.000000
  0.208333 -0.125000  0.041667    576.000000
  0.041667  0.041667  0.375000    288.000000
 -0.041667  0.125000  0.458333    576.000000
 -0.125000  0.208333  0.541667    576.000000
 -0.208333  0.291667  0.625000    576.000000
  0.708333 -0.625000 -0.291667    576.000000
  0.625000 -0.541667 -0.208333    576.000000
  0.541667 -0.458333 -0.125000    576.000000
  0.458333 -0.375000 -0.041667    576.000000
  0.375000 -0.291667  0.041667    576.000000
  0.291667 -0.208333  0.125000    576.000000
  0.041667  0.041667  0.541667    288.000000
 -0.041667  0.125000  0.625000    576.000000
 -0.125000  0.208333  0.708333    576.000000
  0.791667 -0.708333 -0.208333    576.000000
  0.708333 -0.625000 -0.125000    576.000000
  0.625000 -0.541667 -0.041667    576.000000
  0.541667 -0.458333  0.041667    576.000000
  0.458333 -0.375000  0.125000    576.000000
  0.375000 -0.291667  0.208333    576.000000
  0.041667  0.041667  0.708333    288.000000
 -0.041667  0.125000  0.791667    576.000000
  0.875000 -0.791667 -0.125000    576.000000
  0.791667 -0.708333 -0.041667    576.000000
  0.708333 -0.625000  0.041667    576.000000
  0.625000 -0.541667  0.125000    576.000000
  0.541667 -0.458333  0.208333    576.000000
  0.458333 -0.375000  0.291667    576.000000
  0.041667  0.041667  0.875000    288.000000
  0.958333 -0.875000 -0.041667    576.000000
  0.875000 -0.791667  0.041667    576.000000
  0.791667 -0.708333  0.125000    576.000000
  0.708333 -0.625000  0.208333    576.000000
  0.625000 -0.541667  0.291667    576.000000
  0.541667 -0.458333  0.375000    576.000000
  0.041667  0.041667 -0.958333    288.000000
 -0.041667  0.125000 -0.875000    576.000000
 -0.125000  0.208333 -0.791667    576.000000
 -0.208333  0.291667 -0.708333    576.000000
 -0.291667  0.375000 -0.625000    576.000000
  0.041667  0.041667 -0.791667    288.000000
 -0.041667  0.125000 -0.708333    576.000000
 -0.125000  0.208333 -0.625000    576.000000
 -0.208333  0.291667 -0.541667    576.000000
  0.041667  0.041667 -0.625000    288.000000
 -0.041667  0.125000 -0.541667    576.000000
 -0.125000  0.208333 -0.458333    576.000000
  0.041667  0.041667 -0.458333    288.000000
 -0.041667  0.125000 -0.375000    576.000000
  0.041667  0.041667 -0.291667    288.000000
  0.125000  0.125000  0.125000     96.000000
  0.041667  0.208333  0.208333    288.000000
 -0.041667  0.291667  0.291667    288.000000
 -0.125000  0.375000  0.375000    288.000000
 -0.208333  0.458333  0.458333    288.000000
  0.708333 -0.458333 -0.458333    288.000000
  0.625000 -0.375000 -0.375000    288.000000
  0.541667 -0.291667 -0.291667    288.000000
  0.458333 -0.208333 -0.208333    288.000000
  0.375000 -0.125000 -0.125000    288.000000
  0.125000  0.125000  0.291667    288.000000
  0.041667  0.208333  0.375000    576.000000
 -0.041667  0.291667  0.458333    576.000000
 -0.125000  0.375000  0.541667    576.000000
  0.791667 -0.541667 -0.375000    576.000000
  0.708333 -0.458333 -0.291667    576.000000
  0.625000 -0.375000 -0.208333    576.000000
  0.541667 -0.291667 -0.125000    576.000000
  0.458333 -0.208333 -0.041667    576.000000
  0.125000  0.125000  0.458333    288.000000
  0.041667  0.208333  0.541667    576.000000
 -0.041667  0.291667  0.625000    576.000000
  0.875000 -0.625000 -0.291667    576.000000
  0.791667 -0.541667 -0.208333    576.000000
  0.708333 -0.458333 -0.125000    576.000000
  0.625000 -0.375000 -0.041667    576.000000
  0.541667 -0.291667  0.041667    576.000000
  0.125000  0.125000  0.625000    288.000000
  0.041667  0.208333  0.708333    576.000000
  0.958333 -0.708333 -0.208333    576.000000
  0.875000 -0.625000 -0.125000    576.000000
  0.791667 -0.541667 -0.041667    576.000000
  0.708333 -0.458333  0.041667    576.000000
  0.625000 -0.375000  0.125000    576.000000
  0.125000  0.125000  0.791667    288.000000
  1.041667 -0.791667 -0.125000    576.000000
  0.958333 -0.708333 -0.041667    576.000000
  0.875000 -0.625000  0.041667    576.000000
  0.791667 -0.541667  0.125000    576.000000
  0.708333 -0.458333  0.208333    576.000000
  0.125000  0.125000 -1.041667    288.000000
  0.041667  0.208333 -0.958333    576.000000
 -0.041667  0.291667 -0.875000    576.000000
 -0.125000  0.375000 -0.791667    576.000000
  0.125000  0.125000 -0.875000    288.000000
  0.041667  0.208333 -0.791667    576.000000
 -0.041667  0.291667 -0.708333    576.000000
  0.125000  0.125000 -0.708333    288.000000
  0.041667  0.208333 -0.625000    576.000000
  0.125000  0.125000 -0.541667    288.000000
  0.208333  0.208333  0.208333     96.000000
  0.125000  0.291667  0.291667    288.000000
  0.041667  0.375000  0.375000    288.000000
 -0.041667  0.458333  0.458333    288.000000
  0.875000 -0.458333 -0.458333    288.000000
  0.791667 -0.375000 -0.375000    288.000000
  0.708333 -0.291667 -0.291667    288.000000
  0.625000 -0.208333 -0.208333    288.000000
  0.208333  0.208333  0.375000    288.000000
  0.125000  0.291667  0.458333    576.000000
  0.041667  0.375000  0.541667    576.000000
  0.958333 -0.541667 -0.375000    576.000000
  0.875000 -0.458333 -0.291667    576.000000
  0.791667 -0.375000 -0.208333    576.000000
  0.708333 -0.291667 -0.125000    576.000000
  0.208333  0.208333  0.541667    288.000000
  0.125000  0.291667  0.625000    576.000000
  1.041667 -0.625000 -0.291667    576.000000
  0.958333 -0.541667 -0.208333    576.000000
  0.875000 -0.458333 -0.125000    576.000000
  0.791667 -0.375000 -0.041667    576.000000
  0.208333  0.208333  0.708333    288.000000
  1.125000 -0.708333 -0.208333    576.000000
  1.041667 -0.625000 -0.125000    576.000000
  0.958333 -0.541667 -0.041667    576.000000
  0.875000 -0.458333  0.041667    576.000000
  0.208333  0.208333 -1.125000    288.000000
  0.125000  0.291667 -1.041667    576.000000
  0.041667  0.375000 -0.958333    576.000000
  0.208333  0.208333 -0.958333    288.000000
  0.125000  0.291667 -0.875000    576.000000
  0.208333  0.208333 -0.791667    288.000000
  0.291667  0.291667  0.291667     96.000000
  0.208333  0.375000  0.375000    288.000000
  0.125000  0.458333  0.458333    288.000000
  1.041667 -0.458333 -0.458333    288.000000
  0.958333 -0.375000 -0.375000    288.000000
  0.875000 -0.291667 -0.291667    288.000000
  0.291667  0.291667  0.458333    288.000000
  0.208333  0.375000  0.541667    576.000000
  1.125000 -0.541667 -0.375000    576.000000
  1.041667 -0.458333 -0.291667    576.000000
  0.958333 -0.375000 -0.208333    576.000000
  0.291667  0.291667  0.625000    288.000000
  1.208333 -0.625000 -0.291667    576.000000
  1.125000 -0.541667 -0.208333    576.000000
  1.041667 -0.458333 -0.125000    576.000000
  0.291667  0.291667 -1.208333    288.000000
  0.208333  0.375000 -1.125000    576.000000
  0.291667  0.291667 -1.041667    288.000000
  0.375000  0.375000  0.375000     96.000000
  0.291667  0.458333  0.458333    288.000000
  1.208333 -0.458333 -0.458333    288.000000
  1.125000 -0.375000 -0.375000    288.000000
  0.375000  0.375000  0.541667    288.000000
  1.291667 -0.541667 -0.375000    576.000000
  1.208333 -0.458333 -0.291667    576.000000
  0.375000  0.375000 -1.291667    288.000000
  0.458333  0.458333  0.458333     96.000000
  1.375000 -0.458333 -0.458333    288.000000
 


--------------------------------------------------------------------------------------------------------




 Dimension of arrays:
   k-points           NKPTS =    182   k-points in BZ     NKDIM =    182   number of bands    NBANDS=     20
   number of dos      NEDOS =    301   number of ions     NIONS =      2
   non local maximal  LDIM  =      4   non local SUM 2l+1 LMDIM =      8
   total plane-waves  NPLWV =  21952
   max r-space proj   IRMAX =      1   max aug-charges    IRDMAX=  18535
   dimension x,y,z NGX =    28 NGY =   28 NGZ =   28
   dimension x,y,z NGXF=    56 NGYF=   56 NGZF=   56
   support grid    NGXF=    56 NGYF=   56 NGZF=   56
   ions per type =               2
 NGX,Y,Z   is equivalent  to a cutoff of  12.12, 12.12, 12.12 a.u.
 NGXF,Y,Z  is equivalent  to a cutoff of  24.25, 24.25, 24.25 a.u.


 I would recommend the setting:
   dimension x,y,z NGX =    25 NGY =   25 NGZ =   25
 SYSTEM =  unknown system                          
 POSCAR =   Diamond Structure Silicon ! System Name

 Startparameter for this run:
   NWRITE =      2    write-flag & timer
   PREC   = accura    normal or accurate (medium, high low for compatibility)
   ISTART =      0    job   : 0-new  1-cont  2-samecut
   ICHARG =      2    charge: 1-file 2-atom 10-const
   ISPIN  =      1    spin polarized calculation?
   LNONCOLLINEAR =      F non collinear calculations
   LSORBIT =      F    spin-orbit coupling
   INIWAV =      1    electr: 0-lowe 1-rand  2-diag
   LASPH  =      F    aspherical Exc in radial PAW
   METAGGA=      F    non-selfconsistent MetaGGA calc.

 Electronic Relaxation 1
   ENCUT  =  400.0 eV  29.40 Ry    5.42 a.u.   6.26  6.26  6.26*2*pi/ulx,y,z
   ENINI  =  400.0     initial cutoff
   ENAUG  =  322.1 eV  augmentation charge cutoff
   NELM   =     60;   NELMIN=  2; NELMDL= -5     # of ELM steps 
   EDIFF  = 0.1E-03   stopping-criterion for ELM
   LREAL  =      F    real-space projection
   NLSPLINE    = F    spline interpolate recip. space projectors
   LCOMPAT=      F    compatible to vasp.4.4
   GGA_COMPAT  = T    GGA compatible to vasp.4.4-vasp.4.6
   LMAXPAW     = -100 max onsite density
   LMAXMIX     =    2 max onsite mixed and CHGCAR
   VOSKOWN=      0    Vosko Wilk Nusair interpolation
   ROPT   =    0.00000
 Ionic relaxation
   EDIFFG = 0.1E-02   stopping-criterion for IOM
   NSW    =    100    number of steps for IOM
   NBLOCK =      1;   KBLOCK =    100    inner block; outer block 
   IBRION =      2    ionic relax: 0-MD 1-quasi-New 2-CG
   NFREE  =      1    steps in history (QN), initial steepest desc. (CG)
   ISIF   =      5    stress and relaxation
   IWAVPR =     11    prediction:  0-non 1-charg 2-wave 3-comb
   ISYM   =      2    0-nonsym 1-usesym 2-fastsym
   LCORR  =      T    Harris-Foulkes like correction to forces

   POTIM  = 0.5000    time-step for ionic-motion
   TEIN   =    0.0    initial temperature
   TEBEG  =    0.0;   TEEND  =   0.0 temperature during run
   SMASS  =  -3.00    Nose mass-parameter (am)
   estimated Nose-frequenzy (Omega)   =  0.10E-29 period in steps =****** mass=  -0.337E-27a.u.
   SCALEE = 1.0000    scale energy and forces
   NPACO  =    256;   APACO  = 16.0  distance and # of slots for P.C.
   PSTRESS=    0.0 pullay stress

  Mass of Ions in am
   POMASS =  28.09
  Ionic Valenz
   ZVAL   =   4.00
  Atomic Wigner-Seitz radii
   RWIGS  =  -1.00
  virtual crystal weights 
   VCA    =   1.00
   NELECT =       8.0000    total number of electrons
   NUPDOWN=      -1.0000    fix difference up-down

 DOS related values:
   EMIN   =  10.00;   EMAX   =-10.00  energy-range for DOS
   EFERMI =   0.00
   ISMEAR =     1;   SIGMA  =   0.20  broadening in eV -4-tet -1-fermi 0-gaus

 Electronic relaxation 2 (details)
   IALGO  =     38    algorithm
   LDIAG  =      T    sub-space diagonalisation (order eigenvalues)
   LSUBROT=      T    optimize rotation matrix (better conditioning)
   TURBO    =      0    0=normal 1=particle mesh
   IRESTART =      0    0=no restart 2=restart with 2 vectors
   NREBOOT  =      0    no. of reboots
   NMIN     =      0    reboot dimension
   EREF     =   0.00    reference energy to select bands
   IMIX   =      4    mixing-type and parameters
     AMIX     =   0.40;   BMIX     =  1.00
     AMIX_MAG =   1.60;   BMIX_MAG =  1.00
     AMIN     =   0.10
     WC   =   100.;   INIMIX=   1;  MIXPRE=   1;  MAXMIX= -45

 Intra band minimization:
   WEIMIN = 0.0010     energy-eigenvalue tresh-hold
   EBREAK =  0.13E-05  absolut break condition
   DEPER  =   0.30     relativ break condition  

   TIME   =   0.40     timestep for ELM

  volume/ion in A,a.u.               =      20.01       135.05
  Fermi-wavevector in a.u.,A,eV,Ry     =   0.957176  1.808800 12.465458  0.916185
  Thomas-Fermi vector in A             =   2.086170
 
 Write flags
   LWAVE  =      T    write WAVECAR
   LCHARG =      T    write CHGCAR
   LVTOT  =      F    write LOCPOT, total local potential
   LVHAR  =      F    write LOCPOT, Hartree potential only
   LELF   =      F    write electronic localiz. function (ELF)
   LORBIT =      0    0 simple, 1 ext, 2 COOP (PROOUT)


 Dipole corrections
   LMONO  =      F    monopole corrections only (constant potential shift)
   LDIPOL =      F    correct potential (dipole corrections)
   IDIPOL =      0    1-x, 2-y, 3-z, 4-all directions 
   EPSILON=  1.0000000 bulk dielectric constant

 Exchange correlation treatment:
   GGA     =    --    GGA type
   LEXCH   =     8    internal setting for exchange type
   VOSKOWN=      0    Vosko Wilk Nusair interpolation
   LHFCALC =     F    Hartree Fock is set to
   LHFONE  =     F    Hartree Fock one center treatment
   AEXX    =    0.0000 exact exchange contribution

 Linear response parameters
   LEPSILON=     F    determine dielectric tensor
   LRPA    =     F    only Hartree local field effects (RPA)
   LNABLA  =     F    use nabla operator in PAW spheres
   LVEL    =     F    velocity operator in full k-point grid
   LINTERFAST=   F  fast interpolation
   KINTER  =     0    interpolate to denser k-point grid
   CSHIFT  =0.1000    complex shift for real part using Kramers Kronig
   OMEGAMAX=  -1.0    maximum frequency
   DEG_THRESHOLD= 0.2000000E-02 threshold for treating states as degnerate
   RTIME   =    0.100 relaxation time in fs

 Orbital magnetization related:
   ORBITALMAG=     F  switch on orbital magnetization
   LCHIMAG   =     F  perturbation theory with respect to B field
   DQ        =  0.001000  dq finite difference perturbation B field



--------------------------------------------------------------------------------------------------------


 conjugate gradient relaxation of ions
 charge density and potential will be updated during run
 non-spin polarized calculation
 Variant of blocked Davidson
 Davidson routine will perform the subspace rotation
 perform sub-space diagonalisation
    after iterative eigenvector-optimisation
 modified Broyden-mixing scheme, WC =      100.0
 initial mixing is a Kerker type mixing with AMIX =  0.4000 and BMIX =      1.0000
 Hartree-type preconditioning will be used
 using additional bands           16
 reciprocal scheme for non local part
 use partial core corrections
 calculate Harris-corrections to forces 
   (improved forces if not selfconsistent)
 use gradient corrections 
 use of overlap-Matrix (Vanderbilt PP)
 Methfessel and Paxton  Order N= 1 SIGMA  =   0.20


--------------------------------------------------------------------------------------------------------


  energy-cutoff  :      400.00
  volume of cell :       40.03
      direct lattice vectors                 reciprocal lattice vectors
     0.000000000  2.715000000  2.715000000    -0.184162063  0.184162063  0.184162063
     2.715000000  0.000000000  2.715000000     0.184162063 -0.184162063  0.184162063
     2.715000000  2.715000000  0.000000000     0.184162063  0.184162063 -0.184162063

  length of vectors
     3.839589822  3.839589822  3.839589822     0.318978049  0.318978049  0.318978049


 
 k-points in units of 2pi/SCALE and weight: nxmxp! comment line                     
   0.04166667  0.04166667  0.04166667       0.001
  -0.04166667  0.12500000  0.12500000       0.003
  -0.12500000  0.20833333  0.20833333       0.003
  -0.20833333  0.29166667  0.29166667       0.003
  -0.29166667  0.37500000  0.37500000       0.003
  -0.37500000  0.45833333  0.45833333       0.003
   0.54166667 -0.45833333 -0.45833333       0.003
   0.45833333 -0.37500000 -0.37500000       0.003
   0.37500000 -0.29166667 -0.29166667       0.003
   0.29166667 -0.20833333 -0.20833333       0.003
   0.20833333 -0.12500000 -0.12500000       0.003
   0.12500000 -0.04166667 -0.04166667       0.003
   0.04166667  0.04166667  0.20833333       0.003
  -0.04166667  0.12500000  0.29166667       0.007
  -0.12500000  0.20833333  0.37500000       0.007
  -0.20833333  0.29166667  0.45833333       0.007
  -0.29166667  0.37500000  0.54166667       0.007
   0.62500000 -0.54166667 -0.37500000       0.007
   0.54166667 -0.45833333 -0.29166667       0.007
   0.45833333 -0.37500000 -0.20833333       0.007
   0.37500000 -0.29166667 -0.12500000       0.007
   0.29166667 -0.20833333 -0.04166667       0.007
   0.20833333 -0.12500000  0.04166667       0.007
   0.04166667  0.04166667  0.37500000       0.003
  -0.04166667  0.12500000  0.45833333       0.007
  -0.12500000  0.20833333  0.54166667       0.007
  -0.20833333  0.29166667  0.62500000       0.007
   0.70833333 -0.62500000 -0.29166667       0.007
   0.62500000 -0.54166667 -0.20833333       0.007
   0.54166667 -0.45833333 -0.12500000       0.007
   0.45833333 -0.37500000 -0.04166667       0.007
   0.37500000 -0.29166667  0.04166667       0.007
   0.29166667 -0.20833333  0.12500000       0.007
   0.04166667  0.04166667  0.54166667       0.003
  -0.04166667  0.12500000  0.62500000       0.007
  -0.12500000  0.20833333  0.70833333       0.007
   0.79166667 -0.70833333 -0.20833333       0.007
   0.70833333 -0.62500000 -0.12500000       0.007
   0.62500000 -0.54166667 -0.04166667       0.007
   0.54166667 -0.45833333  0.04166667       0.007
   0.45833333 -0.37500000  0.12500000       0.007
   0.37500000 -0.29166667  0.20833333       0.007
   0.04166667  0.04166667  0.70833333       0.003
  -0.04166667  0.12500000  0.79166667       0.007
   0.87500000 -0.79166667 -0.12500000       0.007
   0.79166667 -0.70833333 -0.04166667       0.007
   0.70833333 -0.62500000  0.04166667       0.007
   0.62500000 -0.54166667  0.12500000       0.007
   0.54166667 -0.45833333  0.20833333       0.007
   0.45833333 -0.37500000  0.29166667       0.007
   0.04166667  0.04166667  0.87500000       0.003
   0.95833333 -0.87500000 -0.04166667       0.007
   0.87500000 -0.79166667  0.04166667       0.007
   0.79166667 -0.70833333  0.12500000       0.007
   0.70833333 -0.62500000  0.20833333       0.007
   0.62500000 -0.54166667  0.29166667       0.007
   0.54166667 -0.45833333  0.37500000       0.007
   0.04166667  0.04166667 -0.95833333       0.003
  -0.04166667  0.12500000 -0.87500000       0.007
  -0.12500000  0.20833333 -0.79166667       0.007
  -0.20833333  0.29166667 -0.70833333       0.007
  -0.29166667  0.37500000 -0.62500000       0.007
   0.04166667  0.04166667 -0.79166667       0.003
  -0.04166667  0.12500000 -0.70833333       0.007
  -0.12500000  0.20833333 -0.62500000       0.007
  -0.20833333  0.29166667 -0.54166667       0.007
   0.04166667  0.04166667 -0.62500000       0.003
  -0.04166667  0.12500000 -0.54166667       0.007
  -0.12500000  0.20833333 -0.45833333       0.007
   0.04166667  0.04166667 -0.45833333       0.003
  -0.04166667  0.12500000 -0.37500000       0.007
   0.04166667  0.04166667 -0.29166667       0.003
   0.12500000  0.12500000  0.12500000       0.001
   0.04166667  0.20833333  0.20833333       0.003
  -0.04166667  0.29166667  0.29166667       0.003
  -0.12500000  0.37500000  0.37500000       0.003
  -0.20833333  0.45833333  0.45833333       0.003
   0.70833333 -0.45833333 -0.45833333       0.003
   0.62500000 -0.37500000 -0.37500000       0.003
   0.54166667 -0.29166667 -0.29166667       0.003
   0.45833333 -0.20833333 -0.20833333       0.003
   0.37500000 -0.12500000 -0.12500000       0.003
   0.12500000  0.12500000  0.29166667       0.003
   0.04166667  0.20833333  0.37500000       0.007
  -0.04166667  0.29166667  0.45833333       0.007
  -0.12500000  0.37500000  0.54166667       0.007
   0.79166667 -0.54166667 -0.37500000       0.007
   0.70833333 -0.45833333 -0.29166667       0.007
   0.62500000 -0.37500000 -0.20833333       0.007
   0.54166667 -0.29166667 -0.12500000       0.007
   0.45833333 -0.20833333 -0.04166667       0.007
   0.12500000  0.12500000  0.45833333       0.003
   0.04166667  0.20833333  0.54166667       0.007
  -0.04166667  0.29166667  0.62500000       0.007
   0.87500000 -0.62500000 -0.29166667       0.007
   0.79166667 -0.54166667 -0.20833333       0.007
   0.70833333 -0.45833333 -0.12500000       0.007
   0.62500000 -0.37500000 -0.04166667       0.007
   0.54166667 -0.29166667  0.04166667       0.007
   0.12500000  0.12500000  0.62500000       0.003
   0.04166667  0.20833333  0.70833333       0.007
   0.95833333 -0.70833333 -0.20833333       0.007
   0.87500000 -0.62500000 -0.12500000       0.007
   0.79166667 -0.54166667 -0.04166667       0.007
   0.70833333 -0.45833333  0.04166667       0.007
   0.62500000 -0.37500000  0.12500000       0.007
   0.12500000  0.12500000  0.79166667       0.003
   1.04166667 -0.79166667 -0.12500000       0.007
   0.95833333 -0.70833333 -0.04166667       0.007
   0.87500000 -0.62500000  0.04166667       0.007
   0.79166667 -0.54166667  0.12500000       0.007
   0.70833333 -0.45833333  0.20833333       0.007
   0.12500000  0.12500000 -1.04166667       0.003
   0.04166667  0.20833333 -0.95833333       0.007
  -0.04166667  0.29166667 -0.87500000       0.007
  -0.12500000  0.37500000 -0.79166667       0.007
   0.12500000  0.12500000 -0.87500000       0.003
   0.04166667  0.20833333 -0.79166667       0.007
  -0.04166667  0.29166667 -0.70833333       0.007
   0.12500000  0.12500000 -0.70833333       0.003
   0.04166667  0.20833333 -0.62500000       0.007
   0.12500000  0.12500000 -0.54166667       0.003
   0.20833333  0.20833333  0.20833333       0.001
   0.12500000  0.29166667  0.29166667       0.003
   0.04166667  0.37500000  0.37500000       0.003
  -0.04166667  0.45833333  0.45833333       0.003
   0.87500000 -0.45833333 -0.45833333       0.003
   0.79166667 -0.37500000 -0.37500000       0.003
   0.70833333 -0.29166667 -0.29166667       0.003
   0.62500000 -0.20833333 -0.20833333       0.003
   0.20833333  0.20833333  0.37500000       0.003
   0.12500000  0.29166667  0.45833333       0.007
   0.04166667  0.37500000  0.54166667       0.007
   0.95833333 -0.54166667 -0.37500000       0.007
   0.87500000 -0.45833333 -0.29166667       0.007
   0.79166667 -0.37500000 -0.20833333       0.007
   0.70833333 -0.29166667 -0.12500000       0.007
   0.20833333  0.20833333  0.54166667       0.003
   0.12500000  0.29166667  0.62500000       0.007
   1.04166667 -0.62500000 -0.29166667       0.007
   0.95833333 -0.54166667 -0.20833333       0.007
   0.87500000 -0.45833333 -0.12500000       0.007
   0.79166667 -0.37500000 -0.04166667       0.007
   0.20833333  0.20833333  0.70833333       0.003
   1.12500000 -0.70833333 -0.20833333       0.007
   1.04166667 -0.62500000 -0.12500000       0.007
   0.95833333 -0.54166667 -0.04166667       0.007
   0.87500000 -0.45833333  0.04166667       0.007
   0.20833333  0.20833333 -1.12500000       0.003
   0.12500000  0.29166667 -1.04166667       0.007
   0.04166667  0.37500000 -0.95833333       0.007
   0.20833333  0.20833333 -0.95833333       0.003
   0.12500000  0.29166667 -0.87500000       0.007
   0.20833333  0.20833333 -0.79166667       0.003
   0.29166667  0.29166667  0.29166667       0.001
   0.20833333  0.37500000  0.37500000       0.003
   0.12500000  0.45833333  0.45833333       0.003
   1.04166667 -0.45833333 -0.45833333       0.003
   0.95833333 -0.37500000 -0.37500000       0.003
   0.87500000 -0.29166667 -0.29166667       0.003
   0.29166667  0.29166667  0.45833333       0.003
   0.20833333  0.37500000  0.54166667       0.007
   1.12500000 -0.54166667 -0.37500000       0.007
   1.04166667 -0.45833333 -0.29166667       0.007
   0.95833333 -0.37500000 -0.20833333       0.007
   0.29166667  0.29166667  0.62500000       0.003
   1.20833333 -0.62500000 -0.29166667       0.007
   1.12500000 -0.54166667 -0.20833333       0.007
   1.04166667 -0.45833333 -0.12500000       0.007
   0.29166667  0.29166667 -1.20833333       0.003
   0.20833333  0.37500000 -1.12500000       0.007
   0.29166667  0.29166667 -1.04166667       0.003
   0.37500000  0.37500000  0.37500000       0.001
   0.29166667  0.45833333  0.45833333       0.003
   1.20833333 -0.45833333 -0.45833333       0.003
   1.12500000 -0.37500000 -0.37500000       0.003
   0.37500000  0.37500000  0.54166667       0.003
   1.29166667 -0.54166667 -0.37500000       0.007
   1.20833333 -0.45833333 -0.29166667       0.007
   0.37500000  0.37500000 -1.29166667       0.003
   0.45833333  0.45833333  0.45833333       0.001
   1.37500000 -0.45833333 -0.45833333       0.003
 
 k-points in reciprocal lattice and weights: nxmxp! comment line                     
   0.04166667  0.04166667  0.04166667       0.001
   0.12500000  0.04166667  0.04166667       0.003
   0.20833333  0.04166667  0.04166667       0.003
   0.29166667  0.04166667  0.04166667       0.003
   0.37500000  0.04166667  0.04166667       0.003
   0.45833333  0.04166667  0.04166667       0.003
  -0.45833333  0.04166667  0.04166667       0.003
  -0.37500000  0.04166667  0.04166667       0.003
  -0.29166667  0.04166667  0.04166667       0.003
  -0.20833333  0.04166667  0.04166667       0.003
  -0.12500000  0.04166667  0.04166667       0.003
  -0.04166667  0.04166667  0.04166667       0.003
   0.12500000  0.12500000  0.04166667       0.003
   0.20833333  0.12500000  0.04166667       0.007
   0.29166667  0.12500000  0.04166667       0.007
   0.37500000  0.12500000  0.04166667       0.007
   0.45833333  0.12500000  0.04166667       0.007
  -0.45833333  0.12500000  0.04166667       0.007
  -0.37500000  0.12500000  0.04166667       0.007
  -0.29166667  0.12500000  0.04166667       0.007
  -0.20833333  0.12500000  0.04166667       0.007
  -0.12500000  0.12500000  0.04166667       0.007
  -0.04166667  0.12500000  0.04166667       0.007
   0.20833333  0.20833333  0.04166667       0.003
   0.29166667  0.20833333  0.04166667       0.007
   0.37500000  0.20833333  0.04166667       0.007
   0.45833333  0.20833333  0.04166667       0.007
  -0.45833333  0.20833333  0.04166667       0.007
  -0.37500000  0.20833333  0.04166667       0.007
  -0.29166667  0.20833333  0.04166667       0.007
  -0.20833333  0.20833333  0.04166667       0.007
  -0.12500000  0.20833333  0.04166667       0.007
  -0.04166667  0.20833333  0.04166667       0.007
   0.29166667  0.29166667  0.04166667       0.003
   0.37500000  0.29166667  0.04166667       0.007
   0.45833333  0.29166667  0.04166667       0.007
  -0.45833333  0.29166667  0.04166667       0.007
  -0.37500000  0.29166667  0.04166667       0.007
  -0.29166667  0.29166667  0.04166667       0.007
  -0.20833333  0.29166667  0.04166667       0.007
  -0.12500000  0.29166667  0.04166667       0.007
  -0.04166667  0.29166667  0.04166667       0.007
   0.37500000  0.37500000  0.04166667       0.003
   0.45833333  0.37500000  0.04166667       0.007
  -0.45833333  0.37500000  0.04166667       0.007
  -0.37500000  0.37500000  0.04166667       0.007
  -0.29166667  0.37500000  0.04166667       0.007
  -0.20833333  0.37500000  0.04166667       0.007
  -0.12500000  0.37500000  0.04166667       0.007
  -0.04166667  0.37500000  0.04166667       0.007
   0.45833333  0.45833333  0.04166667       0.003
  -0.45833333  0.45833333  0.04166667       0.007
  -0.37500000  0.45833333  0.04166667       0.007
  -0.29166667  0.45833333  0.04166667       0.007
  -0.20833333  0.45833333  0.04166667       0.007
  -0.12500000  0.45833333  0.04166667       0.007
  -0.04166667  0.45833333  0.04166667       0.007
  -0.45833333 -0.45833333  0.04166667       0.003
  -0.37500000 -0.45833333  0.04166667       0.007
  -0.29166667 -0.45833333  0.04166667       0.007
  -0.20833333 -0.45833333  0.04166667       0.007
  -0.12500000 -0.45833333  0.04166667       0.007
  -0.37500000 -0.37500000  0.04166667       0.003
  -0.29166667 -0.37500000  0.04166667       0.007
  -0.20833333 -0.37500000  0.04166667       0.007
  -0.12500000 -0.37500000  0.04166667       0.007
  -0.29166667 -0.29166667  0.04166667       0.003
  -0.20833333 -0.29166667  0.04166667       0.007
  -0.12500000 -0.29166667  0.04166667       0.007
  -0.20833333 -0.20833333  0.04166667       0.003
  -0.12500000 -0.20833333  0.04166667       0.007
  -0.12500000 -0.12500000  0.04166667       0.003
   0.12500000  0.12500000  0.12500000       0.001
   0.20833333  0.12500000  0.12500000       0.003
   0.29166667  0.12500000  0.12500000       0.003
   0.37500000  0.12500000  0.12500000       0.003
   0.45833333  0.12500000  0.12500000       0.003
  -0.45833333  0.12500000  0.12500000       0.003
  -0.37500000  0.12500000  0.12500000       0.003
  -0.29166667  0.12500000  0.12500000       0.003
  -0.20833333  0.12500000  0.12500000       0.003
  -0.12500000  0.12500000  0.12500000       0.003
   0.20833333  0.20833333  0.12500000       0.003
   0.29166667  0.20833333  0.12500000       0.007
   0.37500000  0.20833333  0.12500000       0.007
   0.45833333  0.20833333  0.12500000       0.007
  -0.45833333  0.20833333  0.12500000       0.007
  -0.37500000  0.20833333  0.12500000       0.007
  -0.29166667  0.20833333  0.12500000       0.007
  -0.20833333  0.20833333  0.12500000       0.007
  -0.12500000  0.20833333  0.12500000       0.007
   0.29166667  0.29166667  0.12500000       0.003
   0.37500000  0.29166667  0.12500000       0.007
   0.45833333  0.29166667  0.12500000       0.007
  -0.45833333  0.29166667  0.12500000       0.007
  -0.37500000  0.29166667  0.12500000       0.007
  -0.29166667  0.29166667  0.12500000       0.007
  -0.20833333  0.29166667  0.12500000       0.007
  -0.12500000  0.29166667  0.12500000       0.007
   0.37500000  0.37500000  0.12500000       0.003
   0.45833333  0.37500000  0.12500000       0.007
  -0.45833333  0.37500000  0.12500000       0.007
  -0.37500000  0.37500000  0.12500000       0.007
  -0.29166667  0.37500000  0.12500000       0.007
  -0.20833333  0.37500000  0.12500000       0.007
  -0.12500000  0.37500000  0.12500000       0.007
   0.45833333  0.45833333  0.12500000       0.003
  -0.45833333  0.45833333  0.12500000       0.007
  -0.37500000  0.45833333  0.12500000       0.007
  -0.29166667  0.45833333  0.12500000       0.007
  -0.20833333  0.45833333  0.12500000       0.007
  -0.12500000  0.45833333  0.12500000       0.007
  -0.45833333 -0.45833333  0.12500000       0.003
  -0.37500000 -0.45833333  0.12500000       0.007
  -0.29166667 -0.45833333  0.12500000       0.007
  -0.20833333 -0.45833333  0.12500000       0.007
  -0.37500000 -0.37500000  0.12500000       0.003
  -0.29166667 -0.37500000  0.12500000       0.007
  -0.20833333 -0.37500000  0.12500000       0.007
  -0.29166667 -0.29166667  0.12500000       0.003
  -0.20833333 -0.29166667  0.12500000       0.007
  -0.20833333 -0.20833333  0.12500000       0.003
   0.20833333  0.20833333  0.20833333       0.001
   0.29166667  0.20833333  0.20833333       0.003
   0.37500000  0.20833333  0.20833333       0.003
   0.45833333  0.20833333  0.20833333       0.003
  -0.45833333  0.20833333  0.20833333       0.003
  -0.37500000  0.20833333  0.20833333       0.003
  -0.29166667  0.20833333  0.20833333       0.003
  -0.20833333  0.20833333  0.20833333       0.003
   0.29166667  0.29166667  0.20833333       0.003
   0.37500000  0.29166667  0.20833333       0.007
   0.45833333  0.29166667  0.20833333       0.007
  -0.45833333  0.29166667  0.20833333       0.007
  -0.37500000  0.29166667  0.20833333       0.007
  -0.29166667  0.29166667  0.20833333       0.007
  -0.20833333  0.29166667  0.20833333       0.007
   0.37500000  0.37500000  0.20833333       0.003
   0.45833333  0.37500000  0.20833333       0.007
  -0.45833333  0.37500000  0.20833333       0.007
  -0.37500000  0.37500000  0.20833333       0.007
  -0.29166667  0.37500000  0.20833333       0.007
  -0.20833333  0.37500000  0.20833333       0.007
   0.45833333  0.45833333  0.20833333       0.003
  -0.45833333  0.45833333  0.20833333       0.007
  -0.37500000  0.45833333  0.20833333       0.007
  -0.29166667  0.45833333  0.20833333       0.007
  -0.20833333  0.45833333  0.20833333       0.007
  -0.45833333 -0.45833333  0.20833333       0.003
  -0.37500000 -0.45833333  0.20833333       0.007
  -0.29166667 -0.45833333  0.20833333       0.007
  -0.37500000 -0.37500000  0.20833333       0.003
  -0.29166667 -0.37500000  0.20833333       0.007
  -0.29166667 -0.29166667  0.20833333       0.003
   0.29166667  0.29166667  0.29166667       0.001
   0.37500000  0.29166667  0.29166667       0.003
   0.45833333  0.29166667  0.29166667       0.003
  -0.45833333  0.29166667  0.29166667       0.003
  -0.37500000  0.29166667  0.29166667       0.003
  -0.29166667  0.29166667  0.29166667       0.003
   0.37500000  0.37500000  0.29166667       0.003
   0.45833333  0.37500000  0.29166667       0.007
  -0.45833333  0.37500000  0.29166667       0.007
  -0.37500000  0.37500000  0.29166667       0.007
  -0.29166667  0.37500000  0.29166667       0.007
   0.45833333  0.45833333  0.29166667       0.003
  -0.45833333  0.45833333  0.29166667       0.007
  -0.37500000  0.45833333  0.29166667       0.007
  -0.29166667  0.45833333  0.29166667       0.007
  -0.45833333 -0.45833333  0.29166667       0.003
  -0.37500000 -0.45833333  0.29166667       0.007
  -0.37500000 -0.37500000  0.29166667       0.003
   0.37500000  0.37500000  0.37500000       0.001
   0.45833333  0.37500000  0.37500000       0.003
  -0.45833333  0.37500000  0.37500000       0.003
  -0.37500000  0.37500000  0.37500000       0.003
   0.45833333  0.45833333  0.37500000       0.003
  -0.45833333  0.45833333  0.37500000       0.007
  -0.37500000  0.45833333  0.37500000       0.007
  -0.45833333 -0.45833333  0.37500000       0.003
   0.45833333  0.45833333  0.45833333       0.001
  -0.45833333  0.45833333  0.45833333       0.003
 
 position of ions in fractional coordinates (direct lattice) 
   0.87500000  0.87500000  0.87500000
   0.12500000  0.12500000  0.12500000
 
 position of ions in cartesian coordinates  (Angst):
   4.75125000  4.75125000  4.75125000
   0.67875000  0.67875000  0.67875000
 


--------------------------------------------------------------------------------------------------------


 k-point  1 :   0.0417 0.0417 0.0417  plane waves:     725
 k-point  2 :   0.1250 0.0417 0.0417  plane waves:     729
 k-point  3 :   0.2083 0.0417 0.0417  plane waves:     720
 k-point  4 :   0.2917 0.0417 0.0417  plane waves:     735
 k-point  5 :   0.3750 0.0417 0.0417  plane waves:     741
 k-point  6 :   0.4583 0.0417 0.0417  plane waves:     736
 k-point  7 :  -0.4583 0.0417 0.0417  plane waves:     732
 k-point  8 :  -0.3750 0.0417 0.0417  plane waves:     738
 k-point  9 :  -0.2917 0.0417 0.0417  plane waves:     739
 k-point 10 :  -0.2083 0.0417 0.0417  plane waves:     730
 k-point 11 :  -0.1250 0.0417 0.0417  plane waves:     719
 k-point 12 :  -0.0417 0.0417 0.0417  plane waves:     731
 k-point 13 :   0.1250 0.1250 0.0417  plane waves:     725
 k-point 14 :   0.2083 0.1250 0.0417  plane waves:     723
 k-point 15 :   0.2917 0.1250 0.0417  plane waves:     729
 k-point 16 :   0.3750 0.1250 0.0417  plane waves:     729
 k-point 17 :   0.4583 0.1250 0.0417  plane waves:     728
 k-point 18 :  -0.4583 0.1250 0.0417  plane waves:     732
 k-point 19 :  -0.3750 0.1250 0.0417  plane waves:     730
 k-point 20 :  -0.2917 0.1250 0.0417  plane waves:     734
 k-point 21 :  -0.2083 0.1250 0.0417  plane waves:     731
 k-point 22 :  -0.1250 0.1250 0.0417  plane waves:     732
 k-point 23 :  -0.0417 0.1250 0.0417  plane waves:     722
 k-point 24 :   0.2083 0.2083 0.0417  plane waves:     724
 k-point 25 :   0.2917 0.2083 0.0417  plane waves:     726
 k-point 26 :   0.3750 0.2083 0.0417  plane waves:     730
 k-point 27 :   0.4583 0.2083 0.0417  plane waves:     725
 k-point 28 :  -0.4583 0.2083 0.0417  plane waves:     726
 k-point 29 :  -0.3750 0.2083 0.0417  plane waves:     725
 k-point 30 :  -0.2917 0.2083 0.0417  plane waves:     729
 k-point 31 :  -0.2083 0.2083 0.0417  plane waves:     731
 k-point 32 :  -0.1250 0.2083 0.0417  plane waves:     730
 k-point 33 :  -0.0417 0.2083 0.0417  plane waves:     729
 k-point 34 :   0.2917 0.2917 0.0417  plane waves:     722
 k-point 35 :   0.3750 0.2917 0.0417  plane waves:     724
 k-point 36 :   0.4583 0.2917 0.0417  plane waves:     728
 k-point 37 :  -0.4583 0.2917 0.0417  plane waves:     722
 k-point 38 :  -0.3750 0.2917 0.0417  plane waves:     722
 k-point 39 :  -0.2917 0.2917 0.0417  plane waves:     722
 k-point 40 :  -0.2083 0.2917 0.0417  plane waves:     727
 k-point 41 :  -0.1250 0.2917 0.0417  plane waves:     733
 k-point 42 :  -0.0417 0.2917 0.0417  plane waves:     734
 k-point 43 :   0.3750 0.3750 0.0417  plane waves:     724
 k-point 44 :   0.4583 0.3750 0.0417  plane waves:     731
 k-point 45 :  -0.4583 0.3750 0.0417  plane waves:     728
 k-point 46 :  -0.3750 0.3750 0.0417  plane waves:     725
 k-point 47 :  -0.2917 0.3750 0.0417  plane waves:     724
 k-point 48 :  -0.2083 0.3750 0.0417  plane waves:     723
 k-point 49 :  -0.1250 0.3750 0.0417  plane waves:     727
 k-point 50 :  -0.0417 0.3750 0.0417  plane waves:     736
 k-point 51 :   0.4583 0.4583 0.0417  plane waves:     728
 k-point 52 :  -0.4583 0.4583 0.0417  plane waves:     723
 k-point 53 :  -0.3750 0.4583 0.0417  plane waves:     729
 k-point 54 :  -0.2917 0.4583 0.0417  plane waves:     723
 k-point 55 :  -0.2083 0.4583 0.0417  plane waves:     722
 k-point 56 :  -0.1250 0.4583 0.0417  plane waves:     730
 k-point 57 :  -0.0417 0.4583 0.0417  plane waves:     733
 k-point 58 :  -0.4583-0.4583 0.0417  plane waves:     736
 k-point 59 :  -0.3750-0.4583 0.0417  plane waves:     727
 k-point 60 :  -0.2917-0.4583 0.0417  plane waves:     727
 k-point 61 :  -0.2083-0.4583 0.0417  plane waves:     726
 k-point 62 :  -0.1250-0.4583 0.0417  plane waves:     725
 k-point 63 :  -0.3750-0.3750 0.0417  plane waves:     729
 k-point 64 :  -0.2917-0.3750 0.0417  plane waves:     726
 k-point 65 :  -0.2083-0.3750 0.0417  plane waves:     730
 k-point 66 :  -0.1250-0.3750 0.0417  plane waves:     726
 k-point 67 :  -0.2917-0.2917 0.0417  plane waves:     720
 k-point 68 :  -0.2083-0.2917 0.0417  plane waves:     726
 k-point 69 :  -0.1250-0.2917 0.0417  plane waves:     726
 k-point 70 :  -0.2083-0.2083 0.0417  plane waves:     724
 k-point 71 :  -0.1250-0.2083 0.0417  plane waves:     723
 k-point 72 :  -0.1250-0.1250 0.0417  plane waves:     716
 k-point 73 :   0.1250 0.1250 0.1250  plane waves:     724
 k-point 74 :   0.2083 0.1250 0.1250  plane waves:     723
 k-point 75 :   0.2917 0.1250 0.1250  plane waves:     732
 k-point 76 :   0.3750 0.1250 0.1250  plane waves:     733
 k-point 77 :   0.4583 0.1250 0.1250  plane waves:     733
 k-point 78 :  -0.4583 0.1250 0.1250  plane waves:     729
 k-point 79 :  -0.3750 0.1250 0.1250  plane waves:     726
 k-point 80 :  -0.2917 0.1250 0.1250  plane waves:     728
 k-point 81 :  -0.2083 0.1250 0.1250  plane waves:     729
 k-point 82 :  -0.1250 0.1250 0.1250  plane waves:     722
 k-point 83 :   0.2083 0.2083 0.1250  plane waves:     727
 k-point 84 :   0.2917 0.2083 0.1250  plane waves:     726
 k-point 85 :   0.3750 0.2083 0.1250  plane waves:     726
 k-point 86 :   0.4583 0.2083 0.1250  plane waves:     730
 k-point 87 :  -0.4583 0.2083 0.1250  plane waves:     730
 k-point 88 :  -0.3750 0.2083 0.1250  plane waves:     726
 k-point 89 :  -0.2917 0.2083 0.1250  plane waves:     729
 k-point 90 :  -0.2083 0.2083 0.1250  plane waves:     728
 k-point 91 :  -0.1250 0.2083 0.1250  plane waves:     725
 k-point 92 :   0.2917 0.2917 0.1250  plane waves:     727
 k-point 93 :   0.3750 0.2917 0.1250  plane waves:     728
 k-point 94 :   0.4583 0.2917 0.1250  plane waves:     731
 k-point 95 :  -0.4583 0.2917 0.1250  plane waves:     725
 k-point 96 :  -0.3750 0.2917 0.1250  plane waves:     726
 k-point 97 :  -0.2917 0.2917 0.1250  plane waves:     723
 k-point 98 :  -0.2083 0.2917 0.1250  plane waves:     729
 k-point 99 :  -0.1250 0.2917 0.1250  plane waves:     730
 k-point ** :   0.3750 0.3750 0.1250  plane waves:     724
 k-point ** :   0.4583 0.3750 0.1250  plane waves:     726
 k-point ** :  -0.4583 0.3750 0.1250  plane waves:     730
 k-point ** :  -0.3750 0.3750 0.1250  plane waves:     721
 k-point ** :  -0.2917 0.3750 0.1250  plane waves:     722
 k-point ** :  -0.2083 0.3750 0.1250  plane waves:     726
 k-point ** :  -0.1250 0.3750 0.1250  plane waves:     729
 k-point ** :   0.4583 0.4583 0.1250  plane waves:     732
 k-point ** :  -0.4583 0.4583 0.1250  plane waves:     732
 k-point ** :  -0.3750 0.4583 0.1250  plane waves:     729
 k-point ** :  -0.2917 0.4583 0.1250  plane waves:     723
 k-point ** :  -0.2083 0.4583 0.1250  plane waves:     724
 k-point ** :  -0.1250 0.4583 0.1250  plane waves:     723
 k-point ** :  -0.4583-0.4583 0.1250  plane waves:     730
 k-point ** :  -0.3750-0.4583 0.1250  plane waves:     728
 k-point ** :  -0.2917-0.4583 0.1250  plane waves:     730
 k-point ** :  -0.2083-0.4583 0.1250  plane waves:     725
 k-point ** :  -0.3750-0.3750 0.1250  plane waves:     730
 k-point ** :  -0.2917-0.3750 0.1250  plane waves:     730
 k-point ** :  -0.2083-0.3750 0.1250  plane waves:     726
 k-point ** :  -0.2917-0.2917 0.1250  plane waves:     726
 k-point ** :  -0.2083-0.2917 0.1250  plane waves:     727
 k-point ** :  -0.2083-0.2083 0.1250  plane waves:     725
 k-point ** :   0.2083 0.2083 0.2083  plane waves:     724
 k-point ** :   0.2917 0.2083 0.2083  plane waves:     728
 k-point ** :   0.3750 0.2083 0.2083  plane waves:     730
 k-point ** :   0.4583 0.2083 0.2083  plane waves:     730
 k-point ** :  -0.4583 0.2083 0.2083  plane waves:     726
 k-point ** :  -0.3750 0.2083 0.2083  plane waves:     725
 k-point ** :  -0.2917 0.2083 0.2083  plane waves:     726
 k-point ** :  -0.2083 0.2083 0.2083  plane waves:     724
 k-point ** :   0.2917 0.2917 0.2083  plane waves:     729
 k-point ** :   0.3750 0.2917 0.2083  plane waves:     726
 k-point ** :   0.4583 0.2917 0.2083  plane waves:     727
 k-point ** :  -0.4583 0.2917 0.2083  plane waves:     724
 k-point ** :  -0.3750 0.2917 0.2083  plane waves:     725
 k-point ** :  -0.2917 0.2917 0.2083  plane waves:     728
 k-point ** :  -0.2083 0.2917 0.2083  plane waves:     726
 k-point ** :   0.3750 0.3750 0.2083  plane waves:     728
 k-point ** :   0.4583 0.3750 0.2083  plane waves:     728
 k-point ** :  -0.4583 0.3750 0.2083  plane waves:     730
 k-point ** :  -0.3750 0.3750 0.2083  plane waves:     725
 k-point ** :  -0.2917 0.3750 0.2083  plane waves:     727
 k-point ** :  -0.2083 0.3750 0.2083  plane waves:     726
 k-point ** :   0.4583 0.4583 0.2083  plane waves:     724
 k-point ** :  -0.4583 0.4583 0.2083  plane waves:     725
 k-point ** :  -0.3750 0.4583 0.2083  plane waves:     726
 k-point ** :  -0.2917 0.4583 0.2083  plane waves:     727
 k-point ** :  -0.2083 0.4583 0.2083  plane waves:     725
 k-point ** :  -0.4583-0.4583 0.2083  plane waves:     724
 k-point ** :  -0.3750-0.4583 0.2083  plane waves:     728
 k-point ** :  -0.2917-0.4583 0.2083  plane waves:     724
 k-point ** :  -0.3750-0.3750 0.2083  plane waves:     726
 k-point ** :  -0.2917-0.3750 0.2083  plane waves:     727
 k-point ** :  -0.2917-0.2917 0.2083  plane waves:     728
 k-point ** :   0.2917 0.2917 0.2917  plane waves:     739
 k-point ** :   0.3750 0.2917 0.2917  plane waves:     737
 k-point ** :   0.4583 0.2917 0.2917  plane waves:     729
 k-point ** :  -0.4583 0.2917 0.2917  plane waves:     722
 k-point ** :  -0.3750 0.2917 0.2917  plane waves:     724
 k-point ** :  -0.2917 0.2917 0.2917  plane waves:     719
 k-point ** :   0.3750 0.3750 0.2917  plane waves:     736
 k-point ** :   0.4583 0.3750 0.2917  plane waves:     727
 k-point ** :  -0.4583 0.3750 0.2917  plane waves:     723
 k-point ** :  -0.3750 0.3750 0.2917  plane waves:     724
 k-point ** :  -0.2917 0.3750 0.2917  plane waves:     721
 k-point ** :   0.4583 0.4583 0.2917  plane waves:     726
 k-point ** :  -0.4583 0.4583 0.2917  plane waves:     725
 k-point ** :  -0.3750 0.4583 0.2917  plane waves:     726
 k-point ** :  -0.2917 0.4583 0.2917  plane waves:     726
 k-point ** :  -0.4583-0.4583 0.2917  plane waves:     722
 k-point ** :  -0.3750-0.4583 0.2917  plane waves:     722
 k-point ** :  -0.3750-0.3750 0.2917  plane waves:     723
 k-point ** :   0.3750 0.3750 0.3750  plane waves:     739
 k-point ** :   0.4583 0.3750 0.3750  plane waves:     736
 k-point ** :  -0.4583 0.3750 0.3750  plane waves:     729
 k-point ** :  -0.3750 0.3750 0.3750  plane waves:     722
 k-point ** :   0.4583 0.4583 0.3750  plane waves:     731
 k-point ** :  -0.4583 0.4583 0.3750  plane waves:     730
 k-point ** :  -0.3750 0.4583 0.3750  plane waves:     724
 k-point ** :  -0.4583-0.4583 0.3750  plane waves:     726
 k-point ** :   0.4583 0.4583 0.4583  plane waves:     730
 k-point ** :  -0.4583 0.4583 0.4583  plane waves:     727

 maximum number of plane-waves:       741
 maximum index in each direction: 
   IXMAX=    6   IYMAX=    6   IZMAX=    6
   IXMIN=   -6   IYMIN=   -6   IZMIN=   -6

 NGX is ok and might be reduce to  26
 NGY is ok and might be reduce to  26
 NGZ is ok and might be reduce to  26

 total amount of memory used by VASP on root node    92267. kBytes
========================================================================

   base      :      30000. kBytes
   nonl-proj :       8654. kBytes
   grid      :       9520. kBytes
   one-center:          6. kBytes
   wavefun   :      44087. kBytes
 
 For storing wavefunctions   42.36 MBYTES are necessary
 For predicting wavefunctions    1.99 MBYTES are necessary
 Broyden mixing: mesh for mixing (old mesh)
   NGX = 13   NGY = 13   NGZ = 13
  (NGX  = 56   NGY  = 56   NGZ  = 56)
  gives a total of   2197 points

 initial charge density was supplied:
[...]
     11      18.6523      0.00000
     12      20.2447      0.00000
     13      21.0900      0.00000
     14      22.5461      0.00000
     15      23.6488      0.00000
     16      24.3224      0.00000
     17      24.4591      0.00000
     18      25.2053      0.00000
     19      26.1762      0.00000
     20      26.9291      0.00000

 k-point 170 :      -0.4583   -0.4583    0.2917
  band No.  band energies     occupation 
      1      -3.1725      2.00000
      2      -0.8656      2.00000
      3       2.0881      2.00000
      4       3.6985      2.00000
      5       7.4205     -0.00000
      6      10.9572     -0.00000
      7      11.5746      0.00000
      8      11.5985      0.00000
      9      15.3506      0.00000
     10      15.4662      0.00000
     11      18.5028      0.00000
     12      18.8373      0.00000
     13      19.5256      0.00000
     14      23.4093      0.00000
     15      23.9555      0.00000
     16      23.9906      0.00000
     17      24.5273      0.00000
     18      25.9084      0.00000
     19      25.9241      0.00000
     20      28.5725      0.00000

 k-point 171 :      -0.3750   -0.4583    0.2917
  band No.  band energies     occupation 
      1      -2.7898      2.00000
      2      -1.0628      2.00000
      3       1.7002      2.00000
      4       3.2876      2.00000
      5       7.8197     -0.00000
      6      10.7766     -0.00000
      7      11.3027      0.00000
      8      13.2056      0.00000
      9      13.4884      0.00000
     10      15.9680      0.00000
     11      18.8138      0.00000
     12      19.5875      0.00000
     13      21.3877      0.00000
     14      22.3459      0.00000
     15      23.3206      0.00000
     16      24.0105      0.00000
     17      24.4679      0.00000
     18      25.2285      0.00000
     19      27.1280      0.00000
     20      27.9859      0.00000

 k-point 172 :      -0.3750   -0.3750    0.2917
  band No.  band energies     occupation 
      1      -2.6401      2.00000
      2      -1.1669      2.00000
      3       1.4570      2.00000
      4       3.5590      2.00000
      5       7.2123     -0.00000
      6      10.8119     -0.00000
      7      12.6899      0.00000
      8      13.0689      0.00000
      9      13.9285      0.00000
     10      14.0226      0.00000
     11      20.3373      0.00000
     12      20.8638      0.00000
     13      20.9888      0.00000
     14      21.8223      0.00000
     15      22.1705      0.00000
     16      23.6648      0.00000
     17      24.3910      0.00000
     18      25.8323      0.00000
     19      27.4557      0.00000
     20      28.3576      0.00000

 k-point 173 :       0.3750    0.3750    0.3750
  band No.  band energies     occupation 
      1      -4.4378      2.00000
      2      -0.1168      2.00000
      3       4.7430      2.00000
      4       4.7430      2.00000
      5       7.4975     -0.00000
      6       9.2814     -0.00000
      7       9.2814     -0.00000
      8      13.7098      0.00000
      9      14.4132      0.00000
     10      14.4132      0.00000
     11      15.5213      0.00000
     12      19.5922      0.00000
     13      19.5922      0.00000
     14      19.9300      0.00000
     15      22.5097      0.00000
     16      24.3791      0.00000
     17      24.3791      0.00000
     18      28.8284      0.00000
     19      29.7172      0.00000
     20      29.7226      0.00000

 k-point 174 :       0.4583    0.3750    0.3750
  band No.  band energies     occupation 
      1      -4.1524      2.00000
      2      -0.4349      2.00000
      3       3.9510      2.00000
      4       4.7061      2.00000
      5       7.9617     -0.00000
      6       9.3101     -0.00000
      7       9.3924     -0.00000
      8      13.6949      0.00000
      9      14.0516      0.00000
     10      15.0461      0.00000
     11      17.1122      0.00000
     12      17.7023      0.00000
     13      19.9173      0.00000
     14      20.3450      0.00000
     15      22.7437      0.00000
     16      24.2926      0.00000
     17      25.8707      0.00000
     18      28.5734      0.00000
     19      28.7959      0.00000
     20      28.9645      0.00000

 k-point 175 :      -0.4583    0.3750    0.3750
  band No.  band energies     occupation 
      1      -3.7322      2.00000
      2      -0.6355      2.00000
      3       2.7896      2.00000
      4       4.3732      2.00000
      5       8.1368     -0.00000
      6       9.9142     -0.00000
      7      10.1397     -0.00000
      8      13.7748      0.00000
      9      13.8436      0.00000
     10      14.5719      0.00000
     11      17.0273      0.00000
     12      19.4869      0.00000
     13      20.2969      0.00000
     14      20.7457      0.00000
     15      22.5825      0.00000
     16      24.8191      0.00000
     17      26.0866      0.00000
     18      27.3016      0.00000
     19      27.9671      0.00000
     20      28.1835      0.00000

 k-point 176 :      -0.3750    0.3750    0.3750
  band No.  band energies     occupation 
      1      -3.2084      2.00000
      2      -0.8104      2.00000
      3       1.8372      2.00000
      4       3.9439      2.00000
      5       7.6734     -0.00000
      6      11.2935      0.00000
      7      11.3116      0.00000
      8      12.7914      0.00000
      9      13.8121      0.00000
     10      13.8518      0.00000
     11      18.4069      0.00000
     12      20.6620      0.00000
     13      20.9800      0.00000
     14      21.8564      0.00000
     15      22.2982      0.00000
     16      24.2313      0.00000
     17      25.2852      0.00000
     18      25.8131      0.00000
     19      27.6647      0.00000
     20      27.9394      0.00000

 k-point 177 :       0.4583    0.4583    0.3750
  band No.  band energies     occupation 
      1      -3.9629      2.00000
      2      -0.7375      2.00000
      3       4.1386      2.00000
      4       4.4239      2.00000
      5       7.9076     -0.00000
      6       9.0831     -0.00000
      7       9.6161     -0.00000
      8      13.3955      0.00000
      9      14.5835      0.00000
     10      16.2174      0.00000
     11      17.0211      0.00000
     12      17.5564      0.00000
     13      18.4047      0.00000
     14      20.5396      0.00000
     15      23.4690      0.00000
     16      25.0681      0.00000
     17      26.2878      0.00000
     18      27.4665      0.00000
     19      28.5887      0.00000
     20      28.8410      0.00000

 k-point 178 :      -0.4583    0.4583    0.3750
  band No.  band energies     occupation 
      1      -3.6547      2.00000
      2      -0.8916      2.00000
      3       3.2406      2.00000
      4       4.2061      2.00000
      5       8.4204     -0.00000
      6       8.9671     -0.00000
      7      10.3369     -0.00000
      8      13.2934      0.00000
      9      14.5999      0.00000
     10      15.6940      0.00000
     11      16.9837      0.00000
     12      18.2846      0.00000
     13      19.2203      0.00000
     14      20.8982      0.00000
     15      23.7815      0.00000
     16      25.4874      0.00000
     17      26.2304      0.00000
     18      26.6524      0.00000
     19      27.8881      0.00000
     20      28.0513      0.00000

 k-point 179 :      -0.3750    0.4583    0.3750
  band No.  band energies     occupation 
      1      -3.2553      2.00000
      2      -0.9367      2.00000
      3       2.2829      2.00000
      4       3.7505      2.00000
      5       8.3104     -0.00000
      6       9.6601     -0.00000
      7      11.6840      0.00000
      8      12.8922      0.00000
      9      13.3395      0.00000
     10      15.8309      0.00000
     11      17.7112      0.00000
     12      18.7406      0.00000
     13      21.2231      0.00000
     14      21.5691      0.00000
     15      23.4784      0.00000
     16      24.5367      0.00000
     17      25.4464      0.00000
     18      26.4708      0.00000
     19      26.8188      0.00000
     20      27.8985      0.00000

 k-point 180 :      -0.4583   -0.4583    0.3750
  band No.  band energies     occupation 
      1      -3.4880      2.00000
      2      -0.9887      2.00000
      3       2.9285      2.00000
      4       4.1305      2.00000
      5       7.9277     -0.00000
      6       9.9087     -0.00000
      7      10.3298     -0.00000
      8      13.0221      0.00000
      9      14.8908      0.00000
     10      15.4511      0.00000
     11      17.2166      0.00000
     12      18.4762      0.00000
     13      19.2549      0.00000
     14      21.2346      0.00000
     15      24.7111      0.00000
     16      24.9620      0.00000
     17      25.7349      0.00000
     18      26.9123      0.00000
     19      27.1406      0.00000
     20      27.6022      0.00000

 k-point 181 :       0.4583    0.4583    0.4583
  band No.  band energies     occupation 
      1      -3.8948      2.00000
      2      -1.0014      2.00000
      3       4.6437      2.00000
      4       4.6437      2.00000
      5       7.3838     -0.00000
      6       9.1845     -0.00000
      7       9.1845     -0.00000
      8      13.5760      0.00000
      9      15.8449      0.00000
     10      15.8449      0.00000
     11      16.8547      0.00000
     12      17.7652      0.00000
     13      17.7652      0.00000
     14      19.1706      0.00000
     15      24.2265      0.00000
     16      26.4988      0.00000
     17      26.4988      0.00000
     18      26.8847      0.00000
     19      28.5444      0.00000
     20      28.5444      0.00000

 k-point 182 :      -0.4583    0.4583    0.4583
  band No.  band energies     occupation 
      1      -3.7298      2.00000
      2      -1.0822      2.00000
      3       3.9865      2.00000
      4       4.5124      2.00000
      5       7.8805     -0.00000
      6       9.1385     -0.00000
      7       9.4558     -0.00000
      8      13.8671      0.00000
      9      15.2941      0.00000
     10      15.5803      0.00000
     11      16.8608      0.00000
     12      18.0875      0.00000
     13      18.4126      0.00000
     14      19.4084      0.00000
     15      24.8054      0.00000
     16      25.8799      0.00000
     17      26.6609      0.00000
     18      27.2333      0.00000
     19      27.6758      0.00000
     20      28.1254      0.00000


--------------------------------------------------------------------------------------------------------


 soft charge-density along one line, spin component           1
         0         1         2         3         4         5         6         7         8         9
x     8.4590    0.0000    2.0400    0.0000    0.3547    0.0000    0.0885   -0.0000    0.0037    0.0000
x    -0.0032   -0.0000   -0.0006   -0.0000   -0.0001   -0.0000    0.0000    0.0000    0.0000    0.0000
x     0.0000   -0.0000   -0.0000    0.0000   -0.0000   -0.0000   -0.0000   -0.0000    0.0000    0.0000
y     8.4590    0.0000    2.0400    0.0000    0.3547    0.0000    0.0885   -0.0000    0.0037    0.0000
y    -0.0032   -0.0000   -0.0006   -0.0000   -0.0001   -0.0000    0.0000    0.0000    0.0000    0.0000
y     0.0000   -0.0000   -0.0000    0.0000   -0.0000   -0.0000   -0.0000   -0.0000    0.0000    0.0000
z     8.4590    0.0000    2.0400    0.0000    0.3547    0.0000    0.0885   -0.0000    0.0037    0.0000
z    -0.0032   -0.0000   -0.0006   -0.0000   -0.0001   -0.0000    0.0000    0.0000    0.0000    0.0000
z     0.0000   -0.0000   -0.0000    0.0000   -0.0000   -0.0000   -0.0000   -0.0000    0.0000    0.0000
 total charge-density along one line
x     8.0000    0.0000    1.7619    0.0000    0.3568    0.0000    0.1559   -0.0000    0.0218   -0.0000
x    -0.0044   -0.0000   -0.0007    0.0000   -0.0004   -0.0000    0.0000   -0.0000    0.0001    0.0000
x     0.0000   -0.0000    0.0000    0.0000   -0.0000    0.0000    0.0000    0.0000    0.0000   -0.0000
x     0.0000    0.0000   -0.0000    0.0000   -0.0000   -0.0000    0.0000   -0.0000   -0.0000   -0.0000
x     0.0000   -0.0000   -0.0000    0.0000    0.0000    0.0000   -0.0000    0.0000    0.0000    0.0000
x     0.0000   -0.0000   -0.0000    0.0000    0.0000   -0.0000   -0.0000    0.0000
y     8.0000    0.0000    1.7619    0.0000    0.3568    0.0000    0.1559   -0.0000    0.0218   -0.0000
y    -0.0044    0.0000   -0.0007    0.0000   -0.0004    0.0000    0.0000   -0.0000    0.0001    0.0000
y     0.0000    0.0000    0.0000   -0.0000   -0.0000    0.0000    0.0000    0.0000   -0.0000   -0.0000
y     0.0000    0.0000   -0.0000    0.0000   -0.0000   -0.0000    0.0000    0.0000   -0.0000   -0.0000
y     0.0000   -0.0000   -0.0000   -0.0000    0.0000    0.0000   -0.0000   -0.0000    0.0000    0.0000
y     0.0000    0.0000   -0.0000    0.0000    0.0000    0.0000   -0.0000    0.0000
z     8.0000    0.0000    1.7619    0.0000    0.3568    0.0000    0.1559   -0.0000    0.0218    0.0000
z    -0.0044    0.0000   -0.0007    0.0000   -0.0004    0.0000    0.0000   -0.0000    0.0001    0.0000
z     0.0000    0.0000    0.0000    0.0000   -0.0000    0.0000    0.0000    0.0000    0.0000    0.0000
z     0.0000    0.0000   -0.0000   -0.0000   -0.0000   -0.0000    0.0000   -0.0000   -0.0000   -0.0000
z     0.0000   -0.0000   -0.0000   -0.0000   -0.0000   -0.0000   -0.0000   -0.0000    0.0000   -0.0000
z     0.0000    0.0000    0.0000    0.0000    0.0000    0.0000   -0.0000   -0.0000
 
 pseudopotential strength for first ion, spin component:           1
 18.414  -0.001  -0.000  -0.000  -0.000   0.000   0.000   0.000
 -0.001   0.006   0.000   0.000   0.000  -0.000  -0.000  -0.000
 -0.000   0.000   4.178  -0.000  -0.000  -0.005   0.000   0.000
 -0.000   0.000  -0.000   4.178  -0.000   0.000  -0.005   0.000
 -0.000   0.000  -0.000  -0.000   4.178   0.000   0.000  -0.005
  0.000  -0.000  -0.005   0.000   0.000   0.005  -0.000  -0.000
  0.000  -0.000   0.000  -0.005   0.000  -0.000   0.005  -0.000
  0.000  -0.000   0.000   0.000  -0.005  -0.000  -0.000   0.005
 total augmentation occupancy for first ion, spin component:           1
  1.492  -0.791   0.000   0.000  -0.000  -0.000  -0.000   0.000
 -0.791   0.792  -0.000  -0.000   0.000   0.000   0.000  -0.000
 -0.000  -0.000   1.031  -0.000  -0.000  -0.563  -0.000   0.000
 -0.000  -0.000  -0.000   1.031  -0.000   0.000  -0.563  -0.000
  0.000  -0.000   0.000   0.000   1.031  -0.000   0.000  -0.563
  0.000   0.000  -0.563  -0.000   0.000   0.363  -0.000  -0.000
  0.000   0.000  -0.000  -0.563   0.000  -0.000   0.363  -0.000
  0.000   0.000   0.000  -0.000  -0.563  -0.000  -0.000   0.363


------------------------ aborting loop because EDIFF is reached ----------------------------------------


    CHARGE:  cpu time    1.34: real time    1.35
    FORLOC:  cpu time    0.01: real time    0.01
    FORNL :  cpu time    0.45: real time    0.45
    STRESS:  cpu time    0.99: real time    0.99
    FORCOR:  cpu time    0.15: real time    0.15
    FORHAR:  cpu time    0.03: real time    0.04
    MIXING:  cpu time    0.00: real time    0.00

  FORCE on cell =-STRESS in cart. coord.  units (eV):
  Direction    XX          YY          ZZ          XY          YZ          ZX
  --------------------------------------------------------------------------------------
  Alpha Z     3.36414     3.36414     3.36414
  Ewald     -76.18788   -76.18788   -76.18788    -0.00000    -0.00000     0.00000
  Hartree     4.97164     4.97164     4.97164     0.00000     0.00000     0.00000
  E(xc)     -25.36648   -25.36648   -25.36648    -0.00000    -0.00000    -0.00000
  Local     -29.22347   -29.22347   -29.22347     0.00001     0.00001     0.00001
  n-local    77.89382    80.35065    75.34070     1.07979    -1.09519     0.01977
  augment   -11.65735   -11.65735   -11.65735    -0.00001    -0.00001    -0.00001
  Kinetic    58.38652    56.02841    55.78964     0.87128    -0.88312     0.02044
  Fock        0.00000     0.00000     0.00000     0.00000     0.00000     0.00000
  -------------------------------------------------------------------------------------
  Total       0.49719     0.49719     0.49719    -0.00000     0.00000     0.00000
  in kB      19.90194    19.90194    19.90194    -0.00000     0.00000     0.00000
  external pressure =       19.90 kB  Pullay stress =        0.00 kB


 VOLUME and BASIS-vectors are now :
 -----------------------------------------------------------------------------
  energy-cutoff  :      400.00
  volume of cell :       40.03
      direct lattice vectors                 reciprocal lattice vectors
     0.000000000  2.715000000  2.715000000    -0.184162063  0.184162063  0.184162063
     2.715000000  0.000000000  2.715000000     0.184162063 -0.184162063  0.184162063
     2.715000000  2.715000000  0.000000000     0.184162063  0.184162063 -0.184162063

  length of vectors
     3.839589822  3.839589822  3.839589822     0.318978049  0.318978049  0.318978049


 FORCES acting on ions
    electron-ion (+dipol)            ewald-force                    non-local-force                 convergence-correction
 -----------------------------------------------------------------------------------------------
   0.394E-08 0.738E-08 0.738E-08   0.154E-14 -.440E-14 -.300E-14   0.243E-16 0.330E-16 0.193E-16   0.896E-08 0.896E-08 0.896E-08
   -.394E-08 -.738E-08 -.738E-08   -.135E-14 0.482E-14 0.312E-14   -.226E-16 -.208E-16 -.130E-16   -.896E-08 -.896E-08 -.896E-08
 -----------------------------------------------------------------------------------------------
   -.231E-13 -.283E-13 -.190E-13   0.187E-15 0.422E-15 0.120E-15   0.173E-17 0.121E-16 0.632E-17   -.154E-14 -.103E-14 -.411E-16
 
 
 POSITION                                       TOTAL-FORCE (eV/Angst)
 -----------------------------------------------------------------------------------
      4.75125      4.75125      4.75125        -0.000000      0.000000      0.000000
      0.67875      0.67875      0.67875         0.000000     -0.000000     -0.000000
 -----------------------------------------------------------------------------------
    total drift:                               -0.000000     -0.000000     -0.000000


--------------------------------------------------------------------------------------------------------



  FREE ENERGIE OF THE ION-ELECTRON SYSTEM (eV)
  ---------------------------------------------------
  free  energy   TOTEN  =       -10.84422709 eV

  energy  without entropy=      -10.84463369  energy(sigma->0) =      -10.84436262
 


--------------------------------------------------------------------------------------------------------


    POTLOK:  cpu time    0.15: real time    0.15


--------------------------------------------------------------------------------------------------------




--------------------------------------------------------------------------------------------------------


  
 reached required accuracy - stopping structural energy minimisation
 writing wavefunctions
     LOOP+:  cpu time  240.77: real time  241.54
    4ORBIT:  cpu time    0.00: real time    0.00

 total amount of memory used by VASP on root node    92267. kBytes
========================================================================

   base      :      30000. kBytes
   nonl-proj :       8654. kBytes
   grid      :       9520. kBytes
   one-center:          6. kBytes
   wavefun   :      44087. kBytes
 
  
  
 General timing and accounting informations for this job:
 ========================================================
  
                  Total CPU time used (sec):      243.038
                            User time (sec):      242.515
                          System time (sec):        0.523
                         Elapsed time (sec):      244.395
  
                   Maximum memory used (kb):      169332.
                   Average memory used (kb):           0.
  
                          Minor page faults:        57164
                          Major page faults:           78
                 Voluntary context switches:          263
